[Molden Format]
[Atoms] Angs
 c       1                    6  2.362413138444e+00 -5.523378774526e-01  6.312149789161e-01
 c       2                    6  2.217747196817e+00  8.752590241889e-01  8.468354782334e-01
 c       3                    6  1.001016395957e+00  1.502622327681e+00  7.119149169527e-01
 n       4                    7 -1.654697354313e-01  7.459236031927e-01  5.003364299916e-01
 b       5                    5 -1.120269536628e-01 -7.178749942320e-01  2.893211859298e-01
 c       6                    6  1.287294927138e+00 -1.371297742606e+00  3.552039219584e-01
 c       7                    6 -1.334229989955e+00 -1.240304880773e+00 -5.334479441536e-01
 c       8                    6 -2.670712075390e+00 -6.040140862641e-01 -5.469258116945e-01
 c       9                    6 -2.390449429784e+00  7.400147918336e-01 -5.916104707454e-01
 c      10                    6 -9.063634178663e-01  7.000686947476e-01 -7.319946737444e-01
 h      11                    1  3.377468084883e+00 -9.686947171391e-01  6.717666818643e-01
 h      12                    1  3.093957706711e+00  1.481328102096e+00  1.091857642238e+00
 h      13                    1  8.767774714380e-01  2.582599323488e+00  8.341282897757e-01
 h      14                    1  1.465854079728e+00 -2.426119164442e+00  1.124855712816e-01
 h      15                    1 -1.135402148917e+00 -2.141218496513e+00 -1.136617319781e+00
 h      16                    1 -3.636180410246e+00 -1.122929623379e+00 -5.018329703602e-01
 h      17                    1 -2.974032716405e+00  1.630554376117e+00 -3.341139678678e-01
 h      18                    1 -3.576621234584e-01  8.864213394556e-01 -1.668521938793e+00
[GTO]
1
 s           8
      6.665000000000e+03      6.915839628130e-04
      1.000000000000e+03      5.325796152934e-03
      2.280000000000e+02      2.706072104203e-02
      6.471000000000e+01      1.016568461408e-01
      2.106000000000e+01      2.745748236174e-01
      7.495000000000e+00      4.482943189238e-01
      2.797000000000e+00      2.849026107152e-01
      5.215000000000e-01      1.519485920608e-02
 s           8
      6.665000000000e+03     -2.932696526865e-04
      1.000000000000e+03     -2.318035473975e-03
      2.280000000000e+02     -1.149978603857e-02
      6.471000000000e+01     -4.682672700979e-02
      2.106000000000e+01     -1.284661687505e-01
      7.495000000000e+00     -3.012662724629e-01
      2.797000000000e+00     -2.556307023301e-01
      5.215000000000e-01      1.093793361012e+00
 s           1
      1.596000000000e-01      1.000000000000e+00
 s           1
      4.690000000000e-02      1.000000000000e+00
 p           3
      9.439000000000e+00      5.697925159004e-02
      2.002000000000e+00      3.132072115007e-01
      5.456000000000e-01      7.603767417375e-01
 p           1
      1.517000000000e-01      1.000000000000e+00
 p           1
      4.041000000000e-02      1.000000000000e+00
 d           1
      5.500000000000e-01      1.000000000000e+00
 d           1
      1.510000000000e-01      1.000000000000e+00

2
 s           8
      6.665000000000e+03      6.915839628130e-04
      1.000000000000e+03      5.325796152934e-03
      2.280000000000e+02      2.706072104203e-02
      6.471000000000e+01      1.016568461408e-01
      2.106000000000e+01      2.745748236174e-01
      7.495000000000e+00      4.482943189238e-01
      2.797000000000e+00      2.849026107152e-01
      5.215000000000e-01      1.519485920608e-02
 s           8
      6.665000000000e+03     -2.932696526865e-04
      1.000000000000e+03     -2.318035473975e-03
      2.280000000000e+02     -1.149978603857e-02
      6.471000000000e+01     -4.682672700979e-02
      2.106000000000e+01     -1.284661687505e-01
      7.495000000000e+00     -3.012662724629e-01
      2.797000000000e+00     -2.556307023301e-01
      5.215000000000e-01      1.093793361012e+00
 s           1
      1.596000000000e-01      1.000000000000e+00
 s           1
      4.690000000000e-02      1.000000000000e+00
 p           3
      9.439000000000e+00      5.697925159004e-02
      2.002000000000e+00      3.132072115007e-01
      5.456000000000e-01      7.603767417375e-01
 p           1
      1.517000000000e-01      1.000000000000e+00
 p           1
      4.041000000000e-02      1.000000000000e+00
 d           1
      5.500000000000e-01      1.000000000000e+00
 d           1
      1.510000000000e-01      1.000000000000e+00

3
 s           8
      6.665000000000e+03      6.915839628130e-04
      1.000000000000e+03      5.325796152934e-03
      2.280000000000e+02      2.706072104203e-02
      6.471000000000e+01      1.016568461408e-01
      2.106000000000e+01      2.745748236174e-01
      7.495000000000e+00      4.482943189238e-01
      2.797000000000e+00      2.849026107152e-01
      5.215000000000e-01      1.519485920608e-02
 s           8
      6.665000000000e+03     -2.932696526865e-04
      1.000000000000e+03     -2.318035473975e-03
      2.280000000000e+02     -1.149978603857e-02
      6.471000000000e+01     -4.682672700979e-02
      2.106000000000e+01     -1.284661687505e-01
      7.495000000000e+00     -3.012662724629e-01
      2.797000000000e+00     -2.556307023301e-01
      5.215000000000e-01      1.093793361012e+00
 s           1
      1.596000000000e-01      1.000000000000e+00
 s           1
      4.690000000000e-02      1.000000000000e+00
 p           3
      9.439000000000e+00      5.697925159004e-02
      2.002000000000e+00      3.132072115007e-01
      5.456000000000e-01      7.603767417375e-01
 p           1
      1.517000000000e-01      1.000000000000e+00
 p           1
      4.041000000000e-02      1.000000000000e+00
 d           1
      5.500000000000e-01      1.000000000000e+00
 d           1
      1.510000000000e-01      1.000000000000e+00

4
 s           8
      9.046000000000e+03      6.996174134255e-04
      1.357000000000e+03      5.386054629929e-03
      3.093000000000e+02      2.739102118906e-02
      8.773000000000e+01      1.031505919820e-01
      2.856000000000e+01      2.785706633174e-01
      1.021000000000e+01      4.482948494541e-01
      3.838000000000e+00      2.780859283953e-01
      7.466000000000e-01      1.543156123327e-02
 s           8
      9.046000000000e+03     -3.049900959534e-04
      1.357000000000e+03     -2.408026378508e-03
      3.093000000000e+02     -1.194444872518e-02
      8.773000000000e+01     -4.892599290902e-02
      2.856000000000e+01     -1.344727247250e-01
      1.021000000000e+01     -3.151125777001e-01
      3.838000000000e+00     -2.428578325496e-01
      7.466000000000e-01      1.094382206854e+00
 s           1
      2.248000000000e-01      1.000000000000e+00
 s           1
      6.124000000000e-02      1.000000000000e+00
 p           3
      1.355000000000e+01      5.890567677213e-02
      2.917000000000e+00      3.204611067143e-01
      7.973000000000e-01      7.530420617921e-01
 p           1
      2.185000000000e-01      1.000000000000e+00
 p           1
      5.611000000000e-02      1.000000000000e+00
 d           1
      8.170000000000e-01      1.000000000000e+00
 d           1
      2.300000000000e-01      1.000000000000e+00

5
 s           8
      4.570000000000e+03      6.955544180306e-04
      6.859000000000e+02      5.349572988100e-03
      1.565000000000e+02      2.711662870523e-02
      4.447000000000e+01      1.013150961206e-01
      1.448000000000e+01      2.718808293065e-01
      5.131000000000e+00      4.481159306152e-01
      1.898000000000e+00      2.899372621010e-01
      3.329000000000e-01      1.431283099861e-02
 s           8
      4.570000000000e+03     -2.812802240142e-04
      6.859000000000e+02     -2.219887811105e-03
      1.565000000000e+02     -1.101647150743e-02
      4.447000000000e+01     -4.434918985248e-02
      1.448000000000e+01     -1.209120479502e-01
      5.131000000000e+00     -2.807378995535e-01
      1.898000000000e+00     -2.660668087326e-01
      3.329000000000e-01      1.091784130514e+00
 s           1
      1.043000000000e-01      1.000000000000e+00
 s           1
      3.105000000000e-02      1.000000000000e+00
 p           3
      6.001000000000e+00      5.416586334015e-02
      1.241000000000e+00      3.023798901809e-01
      3.364000000000e-01      7.712922165481e-01
 p           1
      9.538000000000e-02      1.000000000000e+00
 p           1
      2.378000000000e-02      1.000000000000e+00
 d           1
      3.430000000000e-01      1.000000000000e+00
 d           1
      9.040000000000e-02      1.000000000000e+00

6
 s           8
      6.665000000000e+03      6.915839628130e-04
      1.000000000000e+03      5.325796152934e-03
      2.280000000000e+02      2.706072104203e-02
      6.471000000000e+01      1.016568461408e-01
      2.106000000000e+01      2.745748236174e-01
      7.495000000000e+00      4.482943189238e-01
      2.797000000000e+00      2.849026107152e-01
      5.215000000000e-01      1.519485920608e-02
 s           8
      6.665000000000e+03     -2.932696526865e-04
      1.000000000000e+03     -2.318035473975e-03
      2.280000000000e+02     -1.149978603857e-02
      6.471000000000e+01     -4.682672700979e-02
      2.106000000000e+01     -1.284661687505e-01
      7.495000000000e+00     -3.012662724629e-01
      2.797000000000e+00     -2.556307023301e-01
      5.215000000000e-01      1.093793361012e+00
 s           1
      1.596000000000e-01      1.000000000000e+00
 s           1
      4.690000000000e-02      1.000000000000e+00
 p           3
      9.439000000000e+00      5.697925159004e-02
      2.002000000000e+00      3.132072115007e-01
      5.456000000000e-01      7.603767417375e-01
 p           1
      1.517000000000e-01      1.000000000000e+00
 p           1
      4.041000000000e-02      1.000000000000e+00
 d           1
      5.500000000000e-01      1.000000000000e+00
 d           1
      1.510000000000e-01      1.000000000000e+00

7
 s           8
      6.665000000000e+03      6.915839628130e-04
      1.000000000000e+03      5.325796152934e-03
      2.280000000000e+02      2.706072104203e-02
      6.471000000000e+01      1.016568461408e-01
      2.106000000000e+01      2.745748236174e-01
      7.495000000000e+00      4.482943189238e-01
      2.797000000000e+00      2.849026107152e-01
      5.215000000000e-01      1.519485920608e-02
 s           8
      6.665000000000e+03     -2.932696526865e-04
      1.000000000000e+03     -2.318035473975e-03
      2.280000000000e+02     -1.149978603857e-02
      6.471000000000e+01     -4.682672700979e-02
      2.106000000000e+01     -1.284661687505e-01
      7.495000000000e+00     -3.012662724629e-01
      2.797000000000e+00     -2.556307023301e-01
      5.215000000000e-01      1.093793361012e+00
 s           1
      1.596000000000e-01      1.000000000000e+00
 s           1
      4.690000000000e-02      1.000000000000e+00
 p           3
      9.439000000000e+00      5.697925159004e-02
      2.002000000000e+00      3.132072115007e-01
      5.456000000000e-01      7.603767417375e-01
 p           1
      1.517000000000e-01      1.000000000000e+00
 p           1
      4.041000000000e-02      1.000000000000e+00
 d           1
      5.500000000000e-01      1.000000000000e+00
 d           1
      1.510000000000e-01      1.000000000000e+00

8
 s           8
      6.665000000000e+03      6.915839628130e-04
      1.000000000000e+03      5.325796152934e-03
      2.280000000000e+02      2.706072104203e-02
      6.471000000000e+01      1.016568461408e-01
      2.106000000000e+01      2.745748236174e-01
      7.495000000000e+00      4.482943189238e-01
      2.797000000000e+00      2.849026107152e-01
      5.215000000000e-01      1.519485920608e-02
 s           8
      6.665000000000e+03     -2.932696526865e-04
      1.000000000000e+03     -2.318035473975e-03
      2.280000000000e+02     -1.149978603857e-02
      6.471000000000e+01     -4.682672700979e-02
      2.106000000000e+01     -1.284661687505e-01
      7.495000000000e+00     -3.012662724629e-01
      2.797000000000e+00     -2.556307023301e-01
      5.215000000000e-01      1.093793361012e+00
 s           1
      1.596000000000e-01      1.000000000000e+00
 s           1
      4.690000000000e-02      1.000000000000e+00
 p           3
      9.439000000000e+00      5.697925159004e-02
      2.002000000000e+00      3.132072115007e-01
      5.456000000000e-01      7.603767417375e-01
 p           1
      1.517000000000e-01      1.000000000000e+00
 p           1
      4.041000000000e-02      1.000000000000e+00
 d           1
      5.500000000000e-01      1.000000000000e+00
 d           1
      1.510000000000e-01      1.000000000000e+00

9
 s           8
      6.665000000000e+03      6.915839628130e-04
      1.000000000000e+03      5.325796152934e-03
      2.280000000000e+02      2.706072104203e-02
      6.471000000000e+01      1.016568461408e-01
      2.106000000000e+01      2.745748236174e-01
      7.495000000000e+00      4.482943189238e-01
      2.797000000000e+00      2.849026107152e-01
      5.215000000000e-01      1.519485920608e-02
 s           8
      6.665000000000e+03     -2.932696526865e-04
      1.000000000000e+03     -2.318035473975e-03
      2.280000000000e+02     -1.149978603857e-02
      6.471000000000e+01     -4.682672700979e-02
      2.106000000000e+01     -1.284661687505e-01
      7.495000000000e+00     -3.012662724629e-01
      2.797000000000e+00     -2.556307023301e-01
      5.215000000000e-01      1.093793361012e+00
 s           1
      1.596000000000e-01      1.000000000000e+00
 s           1
      4.690000000000e-02      1.000000000000e+00
 p           3
      9.439000000000e+00      5.697925159004e-02
      2.002000000000e+00      3.132072115007e-01
      5.456000000000e-01      7.603767417375e-01
 p           1
      1.517000000000e-01      1.000000000000e+00
 p           1
      4.041000000000e-02      1.000000000000e+00
 d           1
      5.500000000000e-01      1.000000000000e+00
 d           1
      1.510000000000e-01      1.000000000000e+00

10
 s           8
      6.665000000000e+03      6.915839628130e-04
      1.000000000000e+03      5.325796152934e-03
      2.280000000000e+02      2.706072104203e-02
      6.471000000000e+01      1.016568461408e-01
      2.106000000000e+01      2.745748236174e-01
      7.495000000000e+00      4.482943189238e-01
      2.797000000000e+00      2.849026107152e-01
      5.215000000000e-01      1.519485920608e-02
 s           8
      6.665000000000e+03     -2.932696526865e-04
      1.000000000000e+03     -2.318035473975e-03
      2.280000000000e+02     -1.149978603857e-02
      6.471000000000e+01     -4.682672700979e-02
      2.106000000000e+01     -1.284661687505e-01
      7.495000000000e+00     -3.012662724629e-01
      2.797000000000e+00     -2.556307023301e-01
      5.215000000000e-01      1.093793361012e+00
 s           1
      1.596000000000e-01      1.000000000000e+00
 s           1
      4.690000000000e-02      1.000000000000e+00
 p           3
      9.439000000000e+00      5.697925159004e-02
      2.002000000000e+00      3.132072115007e-01
      5.456000000000e-01      7.603767417375e-01
 p           1
      1.517000000000e-01      1.000000000000e+00
 p           1
      4.041000000000e-02      1.000000000000e+00
 d           1
      5.500000000000e-01      1.000000000000e+00
 d           1
      1.510000000000e-01      1.000000000000e+00

11
 s           3
      1.301000000000e+01      3.349872639000e-02
      1.962000000000e+00      2.348008011741e-01
      4.446000000000e-01      8.136829578829e-01
 s           1
      1.220000000000e-01      1.000000000000e+00
 s           1
      2.974000000000e-02      1.000000000000e+00
 p           1
      7.270000000000e-01      1.000000000000e+00
 p           1
      1.410000000000e-01      1.000000000000e+00

12
 s           3
      1.301000000000e+01      3.349872639000e-02
      1.962000000000e+00      2.348008011741e-01
      4.446000000000e-01      8.136829578829e-01
 s           1
      1.220000000000e-01      1.000000000000e+00
 s           1
      2.974000000000e-02      1.000000000000e+00
 p           1
      7.270000000000e-01      1.000000000000e+00
 p           1
      1.410000000000e-01      1.000000000000e+00

13
 s           3
      1.301000000000e+01      3.349872639000e-02
      1.962000000000e+00      2.348008011741e-01
      4.446000000000e-01      8.136829578829e-01
 s           1
      1.220000000000e-01      1.000000000000e+00
 s           1
      2.974000000000e-02      1.000000000000e+00
 p           1
      7.270000000000e-01      1.000000000000e+00
 p           1
      1.410000000000e-01      1.000000000000e+00

14
 s           3
      1.301000000000e+01      3.349872639000e-02
      1.962000000000e+00      2.348008011741e-01
      4.446000000000e-01      8.136829578829e-01
 s           1
      1.220000000000e-01      1.000000000000e+00
 s           1
      2.974000000000e-02      1.000000000000e+00
 p           1
      7.270000000000e-01      1.000000000000e+00
 p           1
      1.410000000000e-01      1.000000000000e+00

15
 s           3
      1.301000000000e+01      3.349872639000e-02
      1.962000000000e+00      2.348008011741e-01
      4.446000000000e-01      8.136829578829e-01
 s           1
      1.220000000000e-01      1.000000000000e+00
 s           1
      2.974000000000e-02      1.000000000000e+00
 p           1
      7.270000000000e-01      1.000000000000e+00
 p           1
      1.410000000000e-01      1.000000000000e+00

16
 s           3
      1.301000000000e+01      3.349872639000e-02
      1.962000000000e+00      2.348008011741e-01
      4.446000000000e-01      8.136829578829e-01
 s           1
      1.220000000000e-01      1.000000000000e+00
 s           1
      2.974000000000e-02      1.000000000000e+00
 p           1
      7.270000000000e-01      1.000000000000e+00
 p           1
      1.410000000000e-01      1.000000000000e+00

17
 s           3
      1.301000000000e+01      3.349872639000e-02
      1.962000000000e+00      2.348008011741e-01
      4.446000000000e-01      8.136829578829e-01
 s           1
      1.220000000000e-01      1.000000000000e+00
 s           1
      2.974000000000e-02      1.000000000000e+00
 p           1
      7.270000000000e-01      1.000000000000e+00
 p           1
      1.410000000000e-01      1.000000000000e+00

18
 s           3
      1.301000000000e+01      3.349872639000e-02
      1.962000000000e+00      2.348008011741e-01
      4.446000000000e-01      8.136829578829e-01
 s           1
      1.220000000000e-01      1.000000000000e+00
 s           1
      2.974000000000e-02      1.000000000000e+00
 p           1
      7.270000000000e-01      1.000000000000e+00
 p           1
      1.410000000000e-01      1.000000000000e+00


[5D]
[7F]
[9G]
[MO]
 Ene=  -15.594794
 Spin=  Alpha
 Occup=    2.000000
   1    -0.0000725428486253
   2    -0.0001318350568628
   3     0.0049501473225093
   4     0.0069565931156620
   5     0.0000069896095322
   6     0.0000019958326326
   7     0.0000069094913125
   8    -0.0011441604573545
   9     0.0077804393698313
  10     0.0012213783060616
  11    -0.0033587481671888
  12    -0.0030952930702024
  13    -0.0010787199946259
  14    -0.0000015514793089
  15     0.0000010420781073
  16     0.0000055894369872
  17    -0.0000257096114506
  18    -0.0000029766286231
  19    -0.0000557446787739
  20    -0.0005514751928931
  21    -0.0002637117291993
  22    -0.0005161051243559
  23    -0.0026143230118037
  24     0.0000224633989064
  25     0.0000123109477192
  26     0.0077445817773251
  27    -0.0130295510551143
  28     0.0000892355360264
  29    -0.0000405944567904
  30    -0.0000064590991341
  31    -0.0048763259146656
  32     0.0107575833843241
  33     0.0005463759670049
  34     0.0048448546762204
  35    -0.0022853448418854
  36     0.0005745171915196
  37     0.0000036963260648
  38    -0.0000275988042570
  39    -0.0000091922735963
  40    -0.0000964786225234
  41    -0.0000115248382630
  42     0.0004544985386100
  43    -0.0001862009583877
  44    -0.0010319278728664
  45     0.0025198520421364
  46    -0.0033643944773312
  47     0.0001859746337457
  48     0.0002928983571831
  49    -0.0028899770797700
  50     0.0259073156691374
  51    -0.0002808620860976
  52    -0.0001573799423961
  53    -0.0000797529735587
  54    -0.0148407822327992
  55    -0.0029569531659215
  56    -0.0024251452714843
  57     0.0023770038092386
  58    -0.0047702572913718
  59    -0.0003060613886883
  60    -0.0000458051248610
  61    -0.0000333026529835
  62    -0.0000018723004118
  63    -0.0000991609371157
  64    -0.0001567165208971
  65    -0.0007009941043529
  66     0.0003178682458239
  67     0.0012572731786722
  68    -0.0021547359425268
  69     0.0057758613815225
  70     1.0031913419681620
  71     0.0055554712650677
  72    -0.0284884740849275
  73    -0.0183464305203782
  74     0.0006390653992645
  75     0.0000973649259623
  76    -0.0012182185812342
  77    -0.0018860647575997
  78    -0.0009991149898841
  79     0.0049127590731633
  80    -0.0041054905748006
  81    -0.0010629453669822
  82     0.0007095806355918
  83    -0.0000352510001314
  84     0.0000664833998270
  85     0.0000710781433971
  86     0.0000172414587406
  87     0.0001005026165263
  88    -0.0004339501636716
  89    -0.0015735388694163
  90    -0.0006774716175739
  91    -0.0009671232497506
  92    -0.0010981023367416
  93     0.0003144969820087
  94     0.0005697818692503
  95     0.0036550643385169
  96    -0.0021998645645008
  97    -0.0000159825675045
  98     0.0004131878522155
  99    -0.0000065019871427
 100     0.0005612146536895
 101    -0.0017888012716157
 102    -0.0009932851260439
 103    -0.0008234781786958
 104    -0.0005851708585639
 105    -0.0004200710814746
 106    -0.0002279459126965
 107    -0.0000032671774767
 108    -0.0000173723908092
 109     0.0000930802988539
 110     0.0000750190246943
 111     0.0005600073499067
 112     0.0002676187082652
 113    -0.0001313509072279
 114     0.0012691497758965
 115    -0.0002545160455767
 116     0.0000245488383614
 117     0.0000163609690261
 118     0.0031506022092179
 119    -0.0092975580857398
 120     0.0000319351483271
 121    -0.0000339713634155
 122    -0.0000110031907911
 123     0.0036258964761705
 124     0.0003868707983234
 125     0.0005911828161637
 126    -0.0024406545328240
 127    -0.0010814759896722
 128    -0.0004008691380148
 129     0.0000670421368623
 130     0.0000105401469353
 131     0.0000002674278868
 132     0.0000457260269011
 133     0.0000935673368823
 134    -0.0000823015663181
 135     0.0000584869125580
 136    -0.0000683444618562
 137     0.0010440869868594
 138     0.0004839145879617
 139     0.0001285728474953
 140     0.0001852565734870
 141    -0.0005047609569086
 142    -0.0013194275511831
 143    -0.0000267003679752
 144    -0.0000180494004505
 145    -0.0000275786912694
 146    -0.0025161112640256
 147    -0.0018823141757300
 148    -0.0014918497715999
 149     0.0007349468924750
 150    -0.0002688826002814
 151    -0.0005074669831221
 152     0.0000321711023208
 153    -0.0000474511798843
 154    -0.0000472873556007
 155     0.0000935537283228
 156    -0.0000994783662062
 157     0.0000761619293897
 158    -0.0003808857367809
 159    -0.0005636686293068
 160     0.0006710051133078
 161    -0.0009979813758126
 162     0.0000685613955758
 163     0.0001093500132939
 164    -0.0033092533316628
 165    -0.0007077955434938
 166     0.0000211632744352
 167    -0.0000279125317585
 168     0.0000008710476255
 169    -0.0006136113560421
 170     0.0005041699425226
 171     0.0003476408478438
 172    -0.0000436595305813
 173    -0.0010281017153043
 174    -0.0000377401796846
 175     0.0000525757037434
 176    -0.0000313847910384
 177    -0.0000216454326329
 178     0.0000087104001211
 179     0.0000270562269161
 180     0.0000237592333579
 181     0.0001862406423055
 182     0.0002722778186049
 183    -0.0000160247638095
 184     0.0005298244209137
 185     0.0000320279066454
 186     0.0000288071604251
 187     0.0028273760803735
 188    -0.0041095311023392
 189    -0.0000388768038361
 190     0.0000106475222141
 191    -0.0000348742660062
 192     0.0002566598653871
 193    -0.0003594314870236
 194    -0.0005065055235325
 195    -0.0017711339991078
 196    -0.0003371166408359
 197    -0.0001334974990359
 198     0.0000914756294070
 199    -0.0000812825545250
 200     0.0000018129869518
 201    -0.0001472549763760
 202     0.0000634197739580
 203    -0.0004436039823566
 204     0.0000055897473103
 205     0.0002629665811009
 206    -0.0004899354821320
 207     0.0005102354762881
 208    -0.0000945459384919
 209    -0.0001407826028848
 210     0.0103887617113845
 211     0.0081258034131784
 212     0.0002497838706727
 213     0.0001094829764811
 214     0.0003540692373150
 215     0.0050876392619634
 216    -0.0021901662771833
 217     0.0089668842219728
 218    -0.0023024309432582
 219     0.0002925369678533
 220     0.0020415057337179
 221    -0.0000131494315509
 222    -0.0000970742955170
 223     0.0000115990135341
 224     0.0002417232294504
 225     0.0000376515643035
 226     0.0031276450250242
 227     0.0033277962043860
 228    -0.0013254200550328
 229    -0.0013981692028964
 230    -0.0000246488185121
 231     0.0000197160150594
 232     0.0000330602488973
 233     0.0006216306388512
 234    -0.0000081042308611
 235     0.0000038085263788
 236    -0.0000004234456292
 237     0.0000788605681922
 238     0.0004365266898004
 239     0.0001232405394770
 240     0.0000517752282638
 241    -0.0002155430360870
 242    -0.0005469613861386
 243     0.0000513348659079
 244     0.0000156052051111
 245     0.0000175263003850
 246     0.0004105580083416
 247     0.0005452178410440
 248     0.0001749581614853
 249    -0.0002403001858346
 250    -0.0007025955033143
 251     0.0018704685140256
 252     0.0000415305902993
 253     0.0001128250577085
 254     0.0000210457633035
 255    -0.0014651731858305
 256    -0.0002626785201166
 257    -0.0002917360746609
 258     0.0000736281162250
 259     0.0012738191482506
 260    -0.0004487592707807
 261    -0.0000107855606909
 262     0.0000165113294516
 263     0.0000088753027901
 264    -0.0002929559225412
 265     0.0000739119289726
 266     0.0000964675670704
 267     0.0000135801972155
 268    -0.0013048706603537
 269    -0.0009686829378720
 270    -0.0000280514923997
 271    -0.0000032267528155
 272     0.0000093090896420
 273    -0.0002881707604077
 274    -0.0005589305825930
 275    -0.0001261493299460
 276     0.0000225248425666
 277     0.0000744055222909
 278    -0.0004541397373036
 279     0.0000184604525752
 280     0.0000083651013381
 281    -0.0000068989042359
 282     0.0000757790867560
 283     0.0001059628964166
 284     0.0001263136968370
 285    -0.0000320639006054
 286     0.0007850782510618
 287    -0.0004807506151541
 288     0.0000181302645147
 289    -0.0000255775302711
 290    -0.0000068576826103
 291     0.0000968630841351
 292    -0.0003998559555897
 293    -0.0000351192752267
 294    -0.0001835601384197
 295     0.0022842445170257
 296     0.0010658559493937
 297     0.0000338431530430
 298     0.0000088210280419
 299    -0.0002438768133051
 300     0.0010877918126908
 301    -0.0003803020190739
 302     0.0007158782216246
 Ene=  -11.327447
 Spin=  Alpha
 Occup=    2.000000
   1    -0.0000478915206426
   2    -0.0000833862206519
   3     0.0059838589978977
   4    -0.0036233356846689
   5    -0.0000211751787714
   6     0.0000115650271424
   7    -0.0000100489042112
   8    -0.0003097672310828
   9     0.0054323502009032
  10     0.0006045986590294
  11     0.0010158798663692
  12     0.0005112894979107
  13     0.0002419218135449
  14    -0.0000324099239254
  15     0.0000166181908500
  16     0.0000075365972481
  17     0.0000017928456292
  18    -0.0000385676386331
  19     0.0000388221170663
  20    -0.0002258372603949
  21     0.0002701694263189
  22    -0.0010374406601061
  23    -0.0008441680818140
  24     0.0000482485594031
  25     0.0000788332766999
  26     0.0095013181860576
  27     0.0053807866948017
  28    -0.0001547253901469
  29     0.0000378612311322
  30    -0.0000304492737649
  31    -0.0085106166357274
  32     0.0081501346078711
  33    -0.0003515778719893
  34    -0.0017238507105835
  35     0.0000019029661141
  36    -0.0001874378450626
  37    -0.0000171344643377
  38     0.0000208765048199
  39    -0.0000075488592562
  40     0.0000615237037469
  41    -0.0000040518543419
  42     0.0000579375265864
  43     0.0002016906889170
  44    -0.0007807426302726
  45     0.0035548719579705
  46    -0.0018108637212551
  47    -0.0001319885021967
  48     0.0000725009040868
  49    -0.0131531799810923
  50    -0.0022672674649992
  51     0.0002595638453049
  52     0.0000635688773907
  53     0.0001798981177463
  54    -0.0099598643690654
  55     0.0043821396946722
  56    -0.0010060022349085
  57    -0.0018994322587241
  58     0.0019552540044713
  59    -0.0004499569315472
  60     0.0000752542228503
  61    -0.0000267861925453
  62    -0.0000725959952128
  63     0.0001159873636225
  64     0.0000851339260207
  65     0.0005929810881373
  66     0.0000374891645901
  67     0.0007923937011951
  68    -0.0007253336131203
  69     0.0048629483651038
  70     0.0001448728365695
  71     0.0006541385149369
  72    -0.0033141108043485
  73    -0.0013719435045900
  74    -0.0004409282592602
  75     0.0001589905551660
  76    -0.0000128861007459
  77    -0.0016932256651168
  78    -0.0007715039283208
  79     0.0006308242010699
  80    -0.0034348410989544
  81    -0.0019021556487782
  82     0.0012326088595574
  83    -0.0000160171236740
  84    -0.0001197483922859
  85    -0.0000512668626588
  86    -0.0000864068008292
  87    -0.0000777456997564
  88    -0.0013523578212891
  89    -0.0002373151630677
  90    -0.0000289199145108
  91     0.0005714026837344
  92     0.0005549150465813
  93    -0.0000329363834406
  94    -0.0000521966832763
  95     0.0039353413278682
  96    -0.0004077717117173
  97     0.0000898233781372