[Molden Format]
[Atoms] Angs
 c       1                    6  2.355810654729e+00 -5.472429513685e-01  6.077561709831e-01
 c       2                    6  2.219547214379e+00  8.775211001531e-01  8.366391533439e-01
 c       3                    6  1.006822107381e+00  1.509388393748e+00  7.294927989096e-01
 n       4                    7 -1.829013850339e-01  7.834169581853e-01  5.206300616469e-01
 b       5                    5 -1.324934123306e-01 -6.963192263761e-01  2.121598810869e-01
 c       6                    6  1.281339403820e+00 -1.341334373330e+00  2.963041955950e-01
 c       7                    6 -1.353659984200e+00 -1.316161960357e+00 -4.968483525782e-01
 c       8                    6 -2.637443815126e+00 -6.146609322860e-01 -5.905506232401e-01
 c       9                    6 -2.357878390148e+00  7.284302340416e-01 -5.961315549929e-01
 c      10                    6 -8.758805317099e-01  7.820947570721e-01 -7.064263111642e-01
 h      11                    1  3.361237180096e+00 -9.786207639933e-01  6.859719989895e-01
 h      12                    1  3.097969223188e+00  1.482946478198e+00  1.073068693264e+00
 h      13                    1  8.896401536684e-01  2.586542799282e+00  8.758233976821e-01
 h      14                    1  1.447057116733e+00 -2.405680333002e+00  9.139803981077e-02
 h      15                    1 -1.201018489617e+00 -2.281535553673e+00 -9.997411404837e-01
 h      16                    1 -3.618224629589e+00 -1.104298981062e+00 -5.665244253061e-01
 h      17                    1 -2.968669834656e+00  1.594725376247e+00 -3.228383514984e-01
 h      18                    1 -3.312525815840e-01  9.407889785201e-01 -1.650183632048e+00
[GTO]
1
 s           8
      6.665000000000e+03      6.915839628130e-04
      1.000000000000e+03      5.325796152934e-03
      2.280000000000e+02      2.706072104203e-02
      6.471000000000e+01      1.016568461408e-01
      2.106000000000e+01      2.745748236174e-01
      7.495000000000e+00      4.482943189238e-01
      2.797000000000e+00      2.849026107152e-01
      5.215000000000e-01      1.519485920608e-02
 s           8
      6.665000000000e+03     -2.932696526865e-04
      1.000000000000e+03     -2.318035473975e-03
      2.280000000000e+02     -1.149978603857e-02
      6.471000000000e+01     -4.682672700979e-02
      2.106000000000e+01     -1.284661687505e-01
      7.495000000000e+00     -3.012662724629e-01
      2.797000000000e+00     -2.556307023301e-01
      5.215000000000e-01      1.093793361012e+00
 s           1
      1.596000000000e-01      1.000000000000e+00
 s           1
      4.690000000000e-02      1.000000000000e+00
 p           3
      9.439000000000e+00      5.697925159004e-02
      2.002000000000e+00      3.132072115007e-01
      5.456000000000e-01      7.603767417375e-01
 p           1
      1.517000000000e-01      1.000000000000e+00
 p           1
      4.041000000000e-02      1.000000000000e+00
 d           1
      5.500000000000e-01      1.000000000000e+00
 d           1
      1.510000000000e-01      1.000000000000e+00

2
 s           8
      6.665000000000e+03      6.915839628130e-04
      1.000000000000e+03      5.325796152934e-03
      2.280000000000e+02      2.706072104203e-02
      6.471000000000e+01      1.016568461408e-01
      2.106000000000e+01      2.745748236174e-01
      7.495000000000e+00      4.482943189238e-01
      2.797000000000e+00      2.849026107152e-01
      5.215000000000e-01      1.519485920608e-02
 s           8
      6.665000000000e+03     -2.932696526865e-04
      1.000000000000e+03     -2.318035473975e-03
      2.280000000000e+02     -1.149978603857e-02
      6.471000000000e+01     -4.682672700979e-02
      2.106000000000e+01     -1.284661687505e-01
      7.495000000000e+00     -3.012662724629e-01
      2.797000000000e+00     -2.556307023301e-01
      5.215000000000e-01      1.093793361012e+00
 s           1
      1.596000000000e-01      1.000000000000e+00
 s           1
      4.690000000000e-02      1.000000000000e+00
 p           3
      9.439000000000e+00      5.697925159004e-02
      2.002000000000e+00      3.132072115007e-01
      5.456000000000e-01      7.603767417375e-01
 p           1
      1.517000000000e-01      1.000000000000e+00
 p           1
      4.041000000000e-02      1.000000000000e+00
 d           1
      5.500000000000e-01      1.000000000000e+00
 d           1
      1.510000000000e-01      1.000000000000e+00

3
 s           8
      6.665000000000e+03      6.915839628130e-04
      1.000000000000e+03      5.325796152934e-03
      2.280000000000e+02      2.706072104203e-02
      6.471000000000e+01      1.016568461408e-01
      2.106000000000e+01      2.745748236174e-01
      7.495000000000e+00      4.482943189238e-01
      2.797000000000e+00      2.849026107152e-01
      5.215000000000e-01      1.519485920608e-02
 s           8
      6.665000000000e+03     -2.932696526865e-04
      1.000000000000e+03     -2.318035473975e-03
      2.280000000000e+02     -1.149978603857e-02
      6.471000000000e+01     -4.682672700979e-02
      2.106000000000e+01     -1.284661687505e-01
      7.495000000000e+00     -3.012662724629e-01
      2.797000000000e+00     -2.556307023301e-01
      5.215000000000e-01      1.093793361012e+00
 s           1
      1.596000000000e-01      1.000000000000e+00
 s           1
      4.690000000000e-02      1.000000000000e+00
 p           3
      9.439000000000e+00      5.697925159004e-02
      2.002000000000e+00      3.132072115007e-01
      5.456000000000e-01      7.603767417375e-01
 p           1
      1.517000000000e-01      1.000000000000e+00
 p           1
      4.041000000000e-02      1.000000000000e+00
 d           1
      5.500000000000e-01      1.000000000000e+00
 d           1
      1.510000000000e-01      1.000000000000e+00

4
 s           8
      9.046000000000e+03      6.996174134255e-04
      1.357000000000e+03      5.386054629929e-03
      3.093000000000e+02      2.739102118906e-02
      8.773000000000e+01      1.031505919820e-01
      2.856000000000e+01      2.785706633174e-01
      1.021000000000e+01      4.482948494541e-01
      3.838000000000e+00      2.780859283953e-01
      7.466000000000e-01      1.543156123327e-02
 s           8
      9.046000000000e+03     -3.049900959534e-04
      1.357000000000e+03     -2.408026378508e-03
      3.093000000000e+02     -1.194444872518e-02
      8.773000000000e+01     -4.892599290902e-02
      2.856000000000e+01     -1.344727247250e-01
      1.021000000000e+01     -3.151125777001e-01
      3.838000000000e+00     -2.428578325496e-01
      7.466000000000e-01      1.094382206854e+00
 s           1
      2.248000000000e-01      1.000000000000e+00
 s           1
      6.124000000000e-02      1.000000000000e+00
 p           3
      1.355000000000e+01      5.890567677213e-02
      2.917000000000e+00      3.204611067143e-01
      7.973000000000e-01      7.530420617921e-01
 p           1
      2.185000000000e-01      1.000000000000e+00
 p           1
      5.611000000000e-02      1.000000000000e+00
 d           1
      8.170000000000e-01      1.000000000000e+00
 d           1
      2.300000000000e-01      1.000000000000e+00

5
 s           8
      4.570000000000e+03      6.955544180306e-04
      6.859000000000e+02      5.349572988100e-03
      1.565000000000e+02      2.711662870523e-02
      4.447000000000e+01      1.013150961206e-01
      1.448000000000e+01      2.718808293065e-01
      5.131000000000e+00      4.481159306152e-01
      1.898000000000e+00      2.899372621010e-01
      3.329000000000e-01      1.431283099861e-02
 s           8
      4.570000000000e+03     -2.812802240142e-04
      6.859000000000e+02     -2.219887811105e-03
      1.565000000000e+02     -1.101647150743e-02
      4.447000000000e+01     -4.434918985248e-02
      1.448000000000e+01     -1.209120479502e-01
      5.131000000000e+00     -2.807378995535e-01
      1.898000000000e+00     -2.660668087326e-01
      3.329000000000e-01      1.091784130514e+00
 s           1
      1.043000000000e-01      1.000000000000e+00
 s           1
      3.105000000000e-02      1.000000000000e+00
 p           3
      6.001000000000e+00      5.416586334015e-02
      1.241000000000e+00      3.023798901809e-01
      3.364000000000e-01      7.712922165481e-01
 p           1
      9.538000000000e-02      1.000000000000e+00
 p           1
      2.378000000000e-02      1.000000000000e+00
 d           1
      3.430000000000e-01      1.000000000000e+00
 d           1
      9.040000000000e-02      1.000000000000e+00

6
 s           8
      6.665000000000e+03      6.915839628130e-04
      1.000000000000e+03      5.325796152934e-03
      2.280000000000e+02      2.706072104203e-02
      6.471000000000e+01      1.016568461408e-01
      2.106000000000e+01      2.745748236174e-01
      7.495000000000e+00      4.482943189238e-01
      2.797000000000e+00      2.849026107152e-01
      5.215000000000e-01      1.519485920608e-02
 s           8
      6.665000000000e+03     -2.932696526865e-04
      1.000000000000e+03     -2.318035473975e-03
      2.280000000000e+02     -1.149978603857e-02
      6.471000000000e+01     -4.682672700979e-02
      2.106000000000e+01     -1.284661687505e-01
      7.495000000000e+00     -3.012662724629e-01
      2.797000000000e+00     -2.556307023301e-01
      5.215000000000e-01      1.093793361012e+00
 s           1
      1.596000000000e-01      1.000000000000e+00
 s           1
      4.690000000000e-02      1.000000000000e+00
 p           3
      9.439000000000e+00      5.697925159004e-02
      2.002000000000e+00      3.132072115007e-01
      5.456000000000e-01      7.603767417375e-01
 p           1
      1.517000000000e-01      1.000000000000e+00
 p           1
      4.041000000000e-02      1.000000000000e+00
 d           1
      5.500000000000e-01      1.000000000000e+00
 d           1
      1.510000000000e-01      1.000000000000e+00

7
 s           8
      6.665000000000e+03      6.915839628130e-04
      1.000000000000e+03      5.325796152934e-03
      2.280000000000e+02      2.706072104203e-02
      6.471000000000e+01      1.016568461408e-01
      2.106000000000e+01      2.745748236174e-01
      7.495000000000e+00      4.482943189238e-01
      2.797000000000e+00      2.849026107152e-01
      5.215000000000e-01      1.519485920608e-02
 s           8
      6.665000000000e+03     -2.932696526865e-04
      1.000000000000e+03     -2.318035473975e-03
      2.280000000000e+02     -1.149978603857e-02
      6.471000000000e+01     -4.682672700979e-02
      2.106000000000e+01     -1.284661687505e-01
      7.495000000000e+00     -3.012662724629e-01
      2.797000000000e+00     -2.556307023301e-01
      5.215000000000e-01      1.093793361012e+00
 s           1
      1.596000000000e-01      1.000000000000e+00
 s           1
      4.690000000000e-02      1.000000000000e+00
 p           3
      9.439000000000e+00      5.697925159004e-02
      2.002000000000e+00      3.132072115007e-01
      5.456000000000e-01      7.603767417375e-01
 p           1
      1.517000000000e-01      1.000000000000e+00
 p           1
      4.041000000000e-02      1.000000000000e+00
 d           1
      5.500000000000e-01      1.000000000000e+00
 d           1
      1.510000000000e-01      1.000000000000e+00

8
 s           8
      6.665000000000e+03      6.915839628130e-04
      1.000000000000e+03      5.325796152934e-03
      2.280000000000e+02      2.706072104203e-02
      6.471000000000e+01      1.016568461408e-01
      2.106000000000e+01      2.745748236174e-01
      7.495000000000e+00      4.482943189238e-01
      2.797000000000e+00      2.849026107152e-01
      5.215000000000e-01      1.519485920608e-02
 s           8
      6.665000000000e+03     -2.932696526865e-04
      1.000000000000e+03     -2.318035473975e-03
      2.280000000000e+02     -1.149978603857e-02
      6.471000000000e+01     -4.682672700979e-02
      2.106000000000e+01     -1.284661687505e-01
      7.495000000000e+00     -3.012662724629e-01
      2.797000000000e+00     -2.556307023301e-01
      5.215000000000e-01      1.093793361012e+00
 s           1
      1.596000000000e-01      1.000000000000e+00
 s           1
      4.690000000000e-02      1.000000000000e+00
 p           3
      9.439000000000e+00      5.697925159004e-02
      2.002000000000e+00      3.132072115007e-01
      5.456000000000e-01      7.603767417375e-01
 p           1
      1.517000000000e-01      1.000000000000e+00
 p           1
      4.041000000000e-02      1.000000000000e+00
 d           1
      5.500000000000e-01      1.000000000000e+00
 d           1
      1.510000000000e-01      1.000000000000e+00

9
 s           8
      6.665000000000e+03      6.915839628130e-04
      1.000000000000e+03      5.325796152934e-03
      2.280000000000e+02      2.706072104203e-02
      6.471000000000e+01      1.016568461408e-01
      2.106000000000e+01      2.745748236174e-01
      7.495000000000e+00      4.482943189238e-01
      2.797000000000e+00      2.849026107152e-01
      5.215000000000e-01      1.519485920608e-02
 s           8
      6.665000000000e+03     -2.932696526865e-04
      1.000000000000e+03     -2.318035473975e-03
      2.280000000000e+02     -1.149978603857e-02
      6.471000000000e+01     -4.682672700979e-02
      2.106000000000e+01     -1.284661687505e-01
      7.495000000000e+00     -3.012662724629e-01
      2.797000000000e+00     -2.556307023301e-01
      5.215000000000e-01      1.093793361012e+00
 s           1
      1.596000000000e-01      1.000000000000e+00
 s           1
      4.690000000000e-02      1.000000000000e+00
 p           3
      9.439000000000e+00      5.697925159004e-02
      2.002000000000e+00      3.132072115007e-01
      5.456000000000e-01      7.603767417375e-01
 p           1
      1.517000000000e-01      1.000000000000e+00
 p           1
      4.041000000000e-02      1.000000000000e+00
 d           1
      5.500000000000e-01      1.000000000000e+00
 d           1
      1.510000000000e-01      1.000000000000e+00

10
 s           8
      6.665000000000e+03      6.915839628130e-04
      1.000000000000e+03      5.325796152934e-03
      2.280000000000e+02      2.706072104203e-02
      6.471000000000e+01      1.016568461408e-01
      2.106000000000e+01      2.745748236174e-01
      7.495000000000e+00      4.482943189238e-01
      2.797000000000e+00      2.849026107152e-01
      5.215000000000e-01      1.519485920608e-02
 s           8
      6.665000000000e+03     -2.932696526865e-04
      1.000000000000e+03     -2.318035473975e-03
      2.280000000000e+02     -1.149978603857e-02
      6.471000000000e+01     -4.682672700979e-02
      2.106000000000e+01     -1.284661687505e-01
      7.495000000000e+00     -3.012662724629e-01
      2.797000000000e+00     -2.556307023301e-01
      5.215000000000e-01      1.093793361012e+00
 s           1
      1.596000000000e-01      1.000000000000e+00
 s           1
      4.690000000000e-02      1.000000000000e+00
 p           3
      9.439000000000e+00      5.697925159004e-02
      2.002000000000e+00      3.132072115007e-01
      5.456000000000e-01      7.603767417375e-01
 p           1
      1.517000000000e-01      1.000000000000e+00
 p           1
      4.041000000000e-02      1.000000000000e+00
 d           1
      5.500000000000e-01      1.000000000000e+00
 d           1
      1.510000000000e-01      1.000000000000e+00

11
 s           3
      1.301000000000e+01      3.349872639000e-02
      1.962000000000e+00      2.348008011741e-01
      4.446000000000e-01      8.136829578829e-01
 s           1
      1.220000000000e-01      1.000000000000e+00
 s           1
      2.974000000000e-02      1.000000000000e+00
 p           1
      7.270000000000e-01      1.000000000000e+00
 p           1
      1.410000000000e-01      1.000000000000e+00

12
 s           3
      1.301000000000e+01      3.349872639000e-02
      1.962000000000e+00      2.348008011741e-01
      4.446000000000e-01      8.136829578829e-01
 s           1
      1.220000000000e-01      1.000000000000e+00
 s           1
      2.974000000000e-02      1.000000000000e+00
 p           1
      7.270000000000e-01      1.000000000000e+00
 p           1
      1.410000000000e-01      1.000000000000e+00

13
 s           3
      1.301000000000e+01      3.349872639000e-02
      1.962000000000e+00      2.348008011741e-01
      4.446000000000e-01      8.136829578829e-01
 s           1
      1.220000000000e-01      1.000000000000e+00
 s           1
      2.974000000000e-02      1.000000000000e+00
 p           1
      7.270000000000e-01      1.000000000000e+00
 p           1
      1.410000000000e-01      1.000000000000e+00

14
 s           3
      1.301000000000e+01      3.349872639000e-02
      1.962000000000e+00      2.348008011741e-01
      4.446000000000e-01      8.136829578829e-01
 s           1
      1.220000000000e-01      1.000000000000e+00
 s           1
      2.974000000000e-02      1.000000000000e+00
 p           1
      7.270000000000e-01      1.000000000000e+00
 p           1
      1.410000000000e-01      1.000000000000e+00

15
 s           3
      1.301000000000e+01      3.349872639000e-02
      1.962000000000e+00      2.348008011741e-01
      4.446000000000e-01      8.136829578829e-01
 s           1
      1.220000000000e-01      1.000000000000e+00
 s           1
      2.974000000000e-02      1.000000000000e+00
 p           1
      7.270000000000e-01      1.000000000000e+00
 p           1
      1.410000000000e-01      1.000000000000e+00

16
 s           3
      1.301000000000e+01      3.349872639000e-02
      1.962000000000e+00      2.348008011741e-01
      4.446000000000e-01      8.136829578829e-01
 s           1
      1.220000000000e-01      1.000000000000e+00
 s           1
      2.974000000000e-02      1.000000000000e+00
 p           1
      7.270000000000e-01      1.000000000000e+00
 p           1
      1.410000000000e-01      1.000000000000e+00

17
 s           3
      1.301000000000e+01      3.349872639000e-02
      1.962000000000e+00      2.348008011741e-01
      4.446000000000e-01      8.136829578829e-01
 s           1
      1.220000000000e-01      1.000000000000e+00
 s           1
      2.974000000000e-02      1.000000000000e+00
 p           1
      7.270000000000e-01      1.000000000000e+00
 p           1
      1.410000000000e-01      1.000000000000e+00

18
 s           3
      1.301000000000e+01      3.349872639000e-02
      1.962000000000e+00      2.348008011741e-01
      4.446000000000e-01      8.136829578829e-01
 s           1
      1.220000000000e-01      1.000000000000e+00
 s           1
      2.974000000000e-02      1.000000000000e+00
 p           1
      7.270000000000e-01      1.000000000000e+00
 p           1
      1.410000000000e-01      1.000000000000e+00


[5D]
[7F]
[9G]
[MO]
 Ene=  -15.599314
 Spin=  Alpha
 Occup=    2.000000
   1    -0.0000785095680404
   2    -0.0001415697798246
   3     0.0054826650215844
   4     0.0063743736916312
   5     0.0000033313691773
   6     0.0000017656270746
   7     0.0000141932635135
   8    -0.0011410911657055
   9     0.0078653591849140
  10     0.0012907661580856
  11    -0.0032633993791063
  12    -0.0029161680926743
  13    -0.0011149939966269
  14    -0.0000028671081434
  15    -0.0000002167072980
  16     0.0000021594719300
  17    -0.0000199984390621
  18    -0.0000152144016631
  19    -0.0000929778827439
  20    -0.0005453634064220
  21    -0.0002588925885138
  22    -0.0007486028042727
  23    -0.0024840902640087
  24     0.0000322229044306
  25     0.0000284979936580
  26     0.0079421715591941
  27    -0.0128498093385853
  28     0.0000823365277991
  29    -0.0000401904224947
  30    -0.0000067952733002
  31    -0.0051791116180705
  32     0.0111246357898846
  33     0.0008840789623257
  34     0.0047682505824429
  35    -0.0023470544363341
  36     0.0004998928482960
  37     0.0000097663858458
  38    -0.0000304499591805
  39    -0.0000104110483329
  40    -0.0001069270245817
  41    -0.0000226195659525
  42     0.0004310191921041
  43    -0.0002825143054754
  44    -0.0010744483072664
  45     0.0026021586210531
  46    -0.0033541001749637
  47     0.0001815974475567
  48     0.0002895537057734
  49    -0.0035435294718293
  50     0.0253820273440821
  51    -0.0002819177593581
  52    -0.0001457361876055
  53    -0.0000759711982602
  54    -0.0151083612127017
  55    -0.0025708912598510
  56    -0.0023831252286927
  57     0.0024386768625752
  58    -0.0045541435535722
  59    -0.0004918311553992
  60    -0.0000444163883941
  61    -0.0000216493464259
  62     0.0000177275917046
  63    -0.0001156688746941
  64    -0.0001506831976854
  65    -0.0006517054415064
  66     0.0004257007799882
  67     0.0013323623790341
  68    -0.0020807182187155
  69     0.0059188166077661
  70     1.0031798348776428
  71     0.0055207932146888
  72    -0.0286545516845311
  73    -0.0191106525933140
  74     0.0007072689624543
  75     0.0000778361464608
  76    -0.0013232417932221
  77    -0.0023549562532696
  78    -0.0009222208764113
  79     0.0051668764098243
  80    -0.0039050661031199
  81    -0.0009481260509993
  82     0.0012105953312255
  83     0.0000242311660459
  84     0.0000842457610633
  85     0.0000492540646273
  86     0.0000499108138434
  87     0.0000983844652060
  88    -0.0005273763868309
  89    -0.0014238789285337
  90    -0.0005493708694232
  91    -0.0009557185017591
  92    -0.0008709047745014
  93     0.0002546866443435
  94     0.0004825988268811
  95     0.0039167099521533
  96    -0.0022945706719068
  97    -0.0000054153280685
  98     0.0004375613246216
  99     0.0000597018809264
 100     0.0001174222654975
 101    -0.0017919819626255
 102    -0.0008860434265661
 103    -0.0008537084102362
 104    -0.0007422025977347
 105    -0.0004562071153335
 106    -0.0002482540479914
 107     0.0000017759663590
 108     0.0000242545268219
 109     0.0000375241968672
 110     0.0001413635639632
 111     0.0004391718336713
 112     0.0002625940129495
 113    -0.0002345493937885
 114     0.0013859695927917
 115    -0.0001249765513627
 116     0.0000322842686077
 117     0.0000314230152131
 118     0.0031617594784447
 119    -0.0086518250457095
 120     0.0000245353002239
 121    -0.0000301593312179
 122     0.0000035282532185
 123     0.0033309671767464
 124     0.0003531901108118
 125     0.0006422992903953
 126    -0.0023508261660687
 127    -0.0008807574598845
 128    -0.0004696808290299
 129     0.0000627182030998
 130     0.0000111361021659
 131    -0.0000024493257191
 132     0.0000649066293158
 133     0.0000940757630740
 134    -0.0000132987140552
 135     0.0000761339853883
 136    -0.0000578796128964
 137     0.0009142075239139
 138     0.0003526587293954
 139     0.0001285731850223
 140     0.0001821317066546
 141    -0.0005069111400410
 142    -0.0035820616312191
 143    -0.0000263531289286
 144    -0.0000063520745450
 145    -0.0000348014800477
 146    -0.0024890876666128
 147    -0.0013100772003547
 148    -0.0011954950267968
 149     0.0008355552769733
 150    -0.0008539836790116
 151    -0.0004164723861121
 152     0.0000412911165192
 153    -0.0000658792793704
 154    -0.0000477433147609
 155     0.0000789610759236
 156    -0.0000877991346896
 157    -0.0000394206377176
 158    -0.0001738443240328
 159    -0.0005264396624307
 160     0.0006999229094351
 161    -0.0009127125495369
 162     0.0000593487073540
 163     0.0000949645875317
 164    -0.0034952948769218
 165     0.0010034955156383
 166     0.0000154001449866
 167    -0.0000295638196910
 168    -0.0000017306624914
 169    -0.0005805316755646
 170     0.0005497345756797
 171     0.0002846852430830
 172     0.0005199668559837
 173    -0.0010611848675548
 174     0.0000195795273601
 175     0.0000406578616310
 176    -0.0000307364766024
 177    -0.0000135023104908
 178     0.0000153349589934
 179     0.0000203342095620
 180     0.0000680745444410
 181     0.0001717309289308
 182     0.0002360913372338
 183     0.0000959367180362
 184     0.0006302732376531
 185     0.0000129616465150
 186    -0.0000053780425944
 187     0.0027209648063793
 188    -0.0059231977597585
 189    -0.0000550235221055
 190     0.0000089087942569
 191    -0.0000363581295286
 192     0.0002092827244750
 193    -0.0002688459555933
 194    -0.0003060428910125
 195    -0.0022294053418468
 196    -0.0004568122541762
 197    -0.0002611339826247
 198     0.0000923919314443
 199    -0.0000731919262413
 200    -0.0000036707725165
 201    -0.0001474972227119
 202     0.0000421972884677
 203    -0.0004524691165237
 204     0.0000972416014571
 205     0.0002793475061757
 206    -0.0004794396537195
 207     0.0006630575456575
 208     0.0000000598662802
 209    -0.0000030530131647
 210     0.0100215698161587
 211     0.0111157848481474
 212     0.0002472119338089
 213     0.0000769141427500
 214     0.0003465388077126
 215     0.0049460194128872
 216    -0.0020134198484964
 217     0.0086853708562053
 218    -0.0026039386832862
 219    -0.0000310313220778
 220     0.0023988326886322
 221    -0.0000447153772970
 222    -0.0001563142450547
 223     0.0000061199885408
 224     0.0002538595236713
 225     0.0000206837986749
 226     0.0031028634791626
 227     0.0033610589831469
 228    -0.0012352669467608
 229    -0.0013197575950689
 230    -0.0000028209796762
 231     0.0000160124731401
 232     0.0003360204347498
 233     0.0006218084206012
 234     0.0000012676717529
 235     0.0000033394494961
 236    -0.0000034599453637
 237     0.0000283716337635
 238     0.0004602816024228
 239     0.0000975307291473
 240     0.0000592028872412
 241    -0.0003396551757499
 242    -0.0005630666830711
 243     0.0000500095260534
 244     0.0000103699122411
 245     0.0000162837444535
 246     0.0004431849816848
 247     0.0005564887127040
 248     0.0002035640612218
 249    -0.0002462526299966
 250    -0.0007619411148955
 251     0.0018413411533683
 252     0.0000364413257825
 253     0.0001122627710046
 254     0.0000181581366877
 255    -0.0015032658536553
 256    -0.0002401304269075
 257    -0.0002994235854824
 258     0.0000826896058282
 259     0.0011970109100233
 260    -0.0004134149623317
 261    -0.0000100343201652
 262     0.0000258498906161
 263     0.0000102093931041
 264    -0.0003209168925836
 265     0.0000589146770093
 266     0.0000503372530843
 267     0.0000469642468612
 268    -0.0003248182728525
 269    -0.0012738295327201
 270    -0.0000340533995883
 271     0.0000004451347891
 272     0.0000067194637852
 273    -0.0002200770290867
 274    -0.0003270760968912
 275    -0.0000064716125210
 276     0.0000239249756587
 277    -0.0001351215655935
 278    -0.0002989511614611
 279     0.0000210166604043
 280     0.0000051764980698
 281    -0.0000073069690742
 282     0.0000209557801735
 283     0.0000783538124459
 284     0.0001211870623689
 285    -0.0000271925688707
 286     0.0010811063689949
 287    -0.0004927172267415
 288     0.0000202905996128
 289    -0.0000215917182837
 290    -0.0000082166111719
 291     0.0001307815382089
 292    -0.0004358533242893
 293    -0.0000683944318954
 294    -0.0001876852969592
 295     0.0022569692270187
 296     0.0012563518235567
 297     0.0000306637731002
 298     0.0000129998154977
 299    -0.0002613456592317
 300     0.0011110510730409
 301    -0.0003699280022041
 302     0.0007545133106159
 Ene=  -11.317095
 Spin=  Alpha
 Occup=    2.000000
   1    -0.0000571557772462
   2    -0.0000938220793193
   3     0.0067143419763178
   4    -0.0054009632325029
   5    -0.0000320360516838
   6     0.0000068574716702
   7    -0.0000180621967258
   8    -0.0010874923400035
   9     0.0056568694349645
  10     0.0005507253725203
  11     0.0012775628868300
  12     0.0003986238369830
  13     0.0002467451902304
  14    -0.0000394730884367
  15     0.0000193235841611
  16     0.0000090386712207
  17    -0.0000041503284151
  18    -0.0000327139837916
  19     0.0000467506256921
  20    -0.0001651434757018
  21     0.0001996117617407
  22    -0.0007804191952073
  23    -0.0009013085427568
  24     0.0000605859528895
  25     0.0000930347817724
  26     0.0105597417949024
  27     0.0064885585239892
  28    -0.0001499425535153
  29     0.0000314150469031
  30    -0.0000340493680284
  31    -0.0086398283479188
  32     0.0086771967867631
  33    -0.0000292036691461
  34    -0.0019598088673951
  35    -0.0004151968484130
  36    -0.0002110706025722
  37    -0.0000161371890211
  38     0.0000200428787177
  39    -0.0000140699221474
  40     0.0000675020387040
  41    -0.0000044529039237
  42     0.0000418578838007
  43     0.0000608713704951
  44    -0.0008975162367248
  45     0.0036226858801768
  46    -0.0020602910847012
  47    -0.0001856637829296
  48     0.0000575490470358
  49    -0.0134892898366603
  50    -0.0036893409432294
  51     0.0002346659391907
  52     0.0000518644501887
  53     0.0001337966181483
  54    -0.0108956490468065
  55     0.0041132734025579
  56    -0.0011543998584887
  57    -0.0015501318115716
  58     0.0022687478009615
  59    -0.0003070205460301
  60     0.0000792104065277
  61     0.0000091921269083
  62    -0.0000634364377168
  63     0.0001182793186710
  64     0.0001112590586363
  65     0.0006947444325678
  66     0.0002398726960336
  67     0.0008902084344482
  68    -0.0007985449370938
  69     0.0052789818159556
  70     0.0001807277245854
  71     0.0007051943512635
  72    -0.0041064382446357
  73    -0.0017468314346761
  74    -0.0003124890909255
  75     0.0001462162282171
  76    -0.0001444748381973
  77    -0.0017271506839411
  78    -0.0008902439634479
  79     0.0009903106580191
  80    -0.0029363595833805
  81    -0.0010875272591145
  82     0.0014437887586115
  83    -0.0000161703172367
  84    -0.0001360810847273
  85    -0.0000372084587399
  86    -0.0000926887844313
  87    -0.0000734813271277
  88    -0.0015649552274000
  89    -0.0003603010021421
  90     0.0000525764254228
  91     0.0004040015976641
  92     0.0005330854460963
  93     0.0000656175522517
  94     0.0001726237947783
  95     0.0022356127776586
  96    -0.0003641732171020
  97    -0.0000337418861291