[Molden Format]
[Atoms] Angs
 c       1                    6  2.383160208418e+00 -5.846024678009e-01  6.146420109214e-01
 c       2                    6  2.253725959317e+00  8.471925118656e-01  7.938815940855e-01
 c       3                    6  1.038742543533e+00  1.477665051015e+00  6.963358241169e-01
 n       4                    7 -1.620423587816e-01  7.636051295482e-01  4.947772445282e-01
 b       5                    5 -1.027180101790e-01 -7.263570483487e-01  1.359642414532e-03
 c       6                    6  1.305839092381e+00 -1.351040107678e+00  2.209241077862e-01
 c       7                    6 -1.359436389251e+00 -1.455557322070e+00 -4.655128466726e-01
 c       8                    6 -2.564069413812e+00 -6.765175136892e-01 -6.038360465640e-01
 c       9                    6 -2.331291060636e+00  6.880431726375e-01 -6.071956801436e-01
 c      10                    6 -8.953510755358e-01  1.038623964585e+00 -6.357290012282e-01
 h      11                    1  3.356510562077e+00 -1.043122857780e+00  8.200104090182e-01
 h      12                    1  3.130918995075e+00  1.457302468041e+00  1.025088781264e+00
 h      13                    1  9.302907957074e-01  2.562439783741e+00  7.869179047958e-01
 h      14                    1  1.441482656596e+00 -2.435925684069e+00  1.378759894627e-01
 h      15                    1 -1.352461422931e+00 -2.528424081239e+00 -7.081422764269e-01
 h      16                    1 -3.567016370240e+00 -1.116296920461e+00 -6.403276871032e-01
 h      17                    1 -3.086528477627e+00  1.471289169225e+00 -4.813806696064e-01
 h      18                    1 -4.197562341114e-01  1.611682752478e+00 -1.449689300648e+00
[GTO]
1
 s           8
      6.665000000000e+03      6.915839628130e-04
      1.000000000000e+03      5.325796152934e-03
      2.280000000000e+02      2.706072104203e-02
      6.471000000000e+01      1.016568461408e-01
      2.106000000000e+01      2.745748236174e-01
      7.495000000000e+00      4.482943189238e-01
      2.797000000000e+00      2.849026107152e-01
      5.215000000000e-01      1.519485920608e-02
 s           8
      6.665000000000e+03     -2.932696526865e-04
      1.000000000000e+03     -2.318035473975e-03
      2.280000000000e+02     -1.149978603857e-02
      6.471000000000e+01     -4.682672700979e-02
      2.106000000000e+01     -1.284661687505e-01
      7.495000000000e+00     -3.012662724629e-01
      2.797000000000e+00     -2.556307023301e-01
      5.215000000000e-01      1.093793361012e+00
 s           1
      1.596000000000e-01      1.000000000000e+00
 s           1
      4.690000000000e-02      1.000000000000e+00
 p           3
      9.439000000000e+00      5.697925159004e-02
      2.002000000000e+00      3.132072115007e-01
      5.456000000000e-01      7.603767417375e-01
 p           1
      1.517000000000e-01      1.000000000000e+00
 p           1
      4.041000000000e-02      1.000000000000e+00
 d           1
      5.500000000000e-01      1.000000000000e+00
 d           1
      1.510000000000e-01      1.000000000000e+00

2
 s           8
      6.665000000000e+03      6.915839628130e-04
      1.000000000000e+03      5.325796152934e-03
      2.280000000000e+02      2.706072104203e-02
      6.471000000000e+01      1.016568461408e-01
      2.106000000000e+01      2.745748236174e-01
      7.495000000000e+00      4.482943189238e-01
      2.797000000000e+00      2.849026107152e-01
      5.215000000000e-01      1.519485920608e-02
 s           8
      6.665000000000e+03     -2.932696526865e-04
      1.000000000000e+03     -2.318035473975e-03
      2.280000000000e+02     -1.149978603857e-02
      6.471000000000e+01     -4.682672700979e-02
      2.106000000000e+01     -1.284661687505e-01
      7.495000000000e+00     -3.012662724629e-01
      2.797000000000e+00     -2.556307023301e-01
      5.215000000000e-01      1.093793361012e+00
 s           1
      1.596000000000e-01      1.000000000000e+00
 s           1
      4.690000000000e-02      1.000000000000e+00
 p           3
      9.439000000000e+00      5.697925159004e-02
      2.002000000000e+00      3.132072115007e-01
      5.456000000000e-01      7.603767417375e-01
 p           1
      1.517000000000e-01      1.000000000000e+00
 p           1
      4.041000000000e-02      1.000000000000e+00
 d           1
      5.500000000000e-01      1.000000000000e+00
 d           1
      1.510000000000e-01      1.000000000000e+00

3
 s           8
      6.665000000000e+03      6.915839628130e-04
      1.000000000000e+03      5.325796152934e-03
      2.280000000000e+02      2.706072104203e-02
      6.471000000000e+01      1.016568461408e-01
      2.106000000000e+01      2.745748236174e-01
      7.495000000000e+00      4.482943189238e-01
      2.797000000000e+00      2.849026107152e-01
      5.215000000000e-01      1.519485920608e-02
 s           8
      6.665000000000e+03     -2.932696526865e-04
      1.000000000000e+03     -2.318035473975e-03
      2.280000000000e+02     -1.149978603857e-02
      6.471000000000e+01     -4.682672700979e-02
      2.106000000000e+01     -1.284661687505e-01
      7.495000000000e+00     -3.012662724629e-01
      2.797000000000e+00     -2.556307023301e-01
      5.215000000000e-01      1.093793361012e+00
 s           1
      1.596000000000e-01      1.000000000000e+00
 s           1
      4.690000000000e-02      1.000000000000e+00
 p           3
      9.439000000000e+00      5.697925159004e-02
      2.002000000000e+00      3.132072115007e-01
      5.456000000000e-01      7.603767417375e-01
 p           1
      1.517000000000e-01      1.000000000000e+00
 p           1
      4.041000000000e-02      1.000000000000e+00
 d           1
      5.500000000000e-01      1.000000000000e+00
 d           1
      1.510000000000e-01      1.000000000000e+00

4
 s           8
      9.046000000000e+03      6.996174134255e-04
      1.357000000000e+03      5.386054629929e-03
      3.093000000000e+02      2.739102118906e-02
      8.773000000000e+01      1.031505919820e-01
      2.856000000000e+01      2.785706633174e-01
      1.021000000000e+01      4.482948494541e-01
      3.838000000000e+00      2.780859283953e-01
      7.466000000000e-01      1.543156123327e-02
 s           8
      9.046000000000e+03     -3.049900959534e-04
      1.357000000000e+03     -2.408026378508e-03
      3.093000000000e+02     -1.194444872518e-02
      8.773000000000e+01     -4.892599290902e-02
      2.856000000000e+01     -1.344727247250e-01
      1.021000000000e+01     -3.151125777001e-01
      3.838000000000e+00     -2.428578325496e-01
      7.466000000000e-01      1.094382206854e+00
 s           1
      2.248000000000e-01      1.000000000000e+00
 s           1
      6.124000000000e-02      1.000000000000e+00
 p           3
      1.355000000000e+01      5.890567677213e-02
      2.917000000000e+00      3.204611067143e-01
      7.973000000000e-01      7.530420617921e-01
 p           1
      2.185000000000e-01      1.000000000000e+00
 p           1
      5.611000000000e-02      1.000000000000e+00
 d           1
      8.170000000000e-01      1.000000000000e+00
 d           1
      2.300000000000e-01      1.000000000000e+00

5
 s           8
      4.570000000000e+03      6.955544180306e-04
      6.859000000000e+02      5.349572988100e-03
      1.565000000000e+02      2.711662870523e-02
      4.447000000000e+01      1.013150961206e-01
      1.448000000000e+01      2.718808293065e-01
      5.131000000000e+00      4.481159306152e-01
      1.898000000000e+00      2.899372621010e-01
      3.329000000000e-01      1.431283099861e-02
 s           8
      4.570000000000e+03     -2.812802240142e-04
      6.859000000000e+02     -2.219887811105e-03
      1.565000000000e+02     -1.101647150743e-02
      4.447000000000e+01     -4.434918985248e-02
      1.448000000000e+01     -1.209120479502e-01
      5.131000000000e+00     -2.807378995535e-01
      1.898000000000e+00     -2.660668087326e-01
      3.329000000000e-01      1.091784130514e+00
 s           1
      1.043000000000e-01      1.000000000000e+00
 s           1
      3.105000000000e-02      1.000000000000e+00
 p           3
      6.001000000000e+00      5.416586334015e-02
      1.241000000000e+00      3.023798901809e-01
      3.364000000000e-01      7.712922165481e-01
 p           1
      9.538000000000e-02      1.000000000000e+00
 p           1
      2.378000000000e-02      1.000000000000e+00
 d           1
      3.430000000000e-01      1.000000000000e+00
 d           1
      9.040000000000e-02      1.000000000000e+00

6
 s           8
      6.665000000000e+03      6.915839628130e-04
      1.000000000000e+03      5.325796152934e-03
      2.280000000000e+02      2.706072104203e-02
      6.471000000000e+01      1.016568461408e-01
      2.106000000000e+01      2.745748236174e-01
      7.495000000000e+00      4.482943189238e-01
      2.797000000000e+00      2.849026107152e-01
      5.215000000000e-01      1.519485920608e-02
 s           8
      6.665000000000e+03     -2.932696526865e-04
      1.000000000000e+03     -2.318035473975e-03
      2.280000000000e+02     -1.149978603857e-02
      6.471000000000e+01     -4.682672700979e-02
      2.106000000000e+01     -1.284661687505e-01
      7.495000000000e+00     -3.012662724629e-01
      2.797000000000e+00     -2.556307023301e-01
      5.215000000000e-01      1.093793361012e+00
 s           1
      1.596000000000e-01      1.000000000000e+00
 s           1
      4.690000000000e-02      1.000000000000e+00
 p           3
      9.439000000000e+00      5.697925159004e-02
      2.002000000000e+00      3.132072115007e-01
      5.456000000000e-01      7.603767417375e-01
 p           1
      1.517000000000e-01      1.000000000000e+00
 p           1
      4.041000000000e-02      1.000000000000e+00
 d           1
      5.500000000000e-01      1.000000000000e+00
 d           1
      1.510000000000e-01      1.000000000000e+00

7
 s           8
      6.665000000000e+03      6.915839628130e-04
      1.000000000000e+03      5.325796152934e-03
      2.280000000000e+02      2.706072104203e-02
      6.471000000000e+01      1.016568461408e-01
      2.106000000000e+01      2.745748236174e-01
      7.495000000000e+00      4.482943189238e-01
      2.797000000000e+00      2.849026107152e-01
      5.215000000000e-01      1.519485920608e-02
 s           8
      6.665000000000e+03     -2.932696526865e-04
      1.000000000000e+03     -2.318035473975e-03
      2.280000000000e+02     -1.149978603857e-02
      6.471000000000e+01     -4.682672700979e-02
      2.106000000000e+01     -1.284661687505e-01
      7.495000000000e+00     -3.012662724629e-01
      2.797000000000e+00     -2.556307023301e-01
      5.215000000000e-01      1.093793361012e+00
 s           1
      1.596000000000e-01      1.000000000000e+00
 s           1
      4.690000000000e-02      1.000000000000e+00
 p           3
      9.439000000000e+00      5.697925159004e-02
      2.002000000000e+00      3.132072115007e-01
      5.456000000000e-01      7.603767417375e-01
 p           1
      1.517000000000e-01      1.000000000000e+00
 p           1
      4.041000000000e-02      1.000000000000e+00
 d           1
      5.500000000000e-01      1.000000000000e+00
 d           1
      1.510000000000e-01      1.000000000000e+00

8
 s           8
      6.665000000000e+03      6.915839628130e-04
      1.000000000000e+03      5.325796152934e-03
      2.280000000000e+02      2.706072104203e-02
      6.471000000000e+01      1.016568461408e-01
      2.106000000000e+01      2.745748236174e-01
      7.495000000000e+00      4.482943189238e-01
      2.797000000000e+00      2.849026107152e-01
      5.215000000000e-01      1.519485920608e-02
 s           8
      6.665000000000e+03     -2.932696526865e-04
      1.000000000000e+03     -2.318035473975e-03
      2.280000000000e+02     -1.149978603857e-02
      6.471000000000e+01     -4.682672700979e-02
      2.106000000000e+01     -1.284661687505e-01
      7.495000000000e+00     -3.012662724629e-01
      2.797000000000e+00     -2.556307023301e-01
      5.215000000000e-01      1.093793361012e+00
 s           1
      1.596000000000e-01      1.000000000000e+00
 s           1
      4.690000000000e-02      1.000000000000e+00
 p           3
      9.439000000000e+00      5.697925159004e-02
      2.002000000000e+00      3.132072115007e-01
      5.456000000000e-01      7.603767417375e-01
 p           1
      1.517000000000e-01      1.000000000000e+00
 p           1
      4.041000000000e-02      1.000000000000e+00
 d           1
      5.500000000000e-01      1.000000000000e+00
 d           1
      1.510000000000e-01      1.000000000000e+00

9
 s           8
      6.665000000000e+03      6.915839628130e-04
      1.000000000000e+03      5.325796152934e-03
      2.280000000000e+02      2.706072104203e-02
      6.471000000000e+01      1.016568461408e-01
      2.106000000000e+01      2.745748236174e-01
      7.495000000000e+00      4.482943189238e-01
      2.797000000000e+00      2.849026107152e-01
      5.215000000000e-01      1.519485920608e-02
 s           8
      6.665000000000e+03     -2.932696526865e-04
      1.000000000000e+03     -2.318035473975e-03
      2.280000000000e+02     -1.149978603857e-02
      6.471000000000e+01     -4.682672700979e-02
      2.106000000000e+01     -1.284661687505e-01
      7.495000000000e+00     -3.012662724629e-01
      2.797000000000e+00     -2.556307023301e-01
      5.215000000000e-01      1.093793361012e+00
 s           1
      1.596000000000e-01      1.000000000000e+00
 s           1
      4.690000000000e-02      1.000000000000e+00
 p           3
      9.439000000000e+00      5.697925159004e-02
      2.002000000000e+00      3.132072115007e-01
      5.456000000000e-01      7.603767417375e-01
 p           1
      1.517000000000e-01      1.000000000000e+00
 p           1
      4.041000000000e-02      1.000000000000e+00
 d           1
      5.500000000000e-01      1.000000000000e+00
 d           1
      1.510000000000e-01      1.000000000000e+00

10
 s           8
      6.665000000000e+03      6.915839628130e-04
      1.000000000000e+03      5.325796152934e-03
      2.280000000000e+02      2.706072104203e-02
      6.471000000000e+01      1.016568461408e-01
      2.106000000000e+01      2.745748236174e-01
      7.495000000000e+00      4.482943189238e-01
      2.797000000000e+00      2.849026107152e-01
      5.215000000000e-01      1.519485920608e-02
 s           8
      6.665000000000e+03     -2.932696526865e-04
      1.000000000000e+03     -2.318035473975e-03
      2.280000000000e+02     -1.149978603857e-02
      6.471000000000e+01     -4.682672700979e-02
      2.106000000000e+01     -1.284661687505e-01
      7.495000000000e+00     -3.012662724629e-01
      2.797000000000e+00     -2.556307023301e-01
      5.215000000000e-01      1.093793361012e+00
 s           1
      1.596000000000e-01      1.000000000000e+00
 s           1
      4.690000000000e-02      1.000000000000e+00
 p           3
      9.439000000000e+00      5.697925159004e-02
      2.002000000000e+00      3.132072115007e-01
      5.456000000000e-01      7.603767417375e-01
 p           1
      1.517000000000e-01      1.000000000000e+00
 p           1
      4.041000000000e-02      1.000000000000e+00
 d           1
      5.500000000000e-01      1.000000000000e+00
 d           1
      1.510000000000e-01      1.000000000000e+00

11
 s           3
      1.301000000000e+01      3.349872639000e-02
      1.962000000000e+00      2.348008011741e-01
      4.446000000000e-01      8.136829578829e-01
 s           1
      1.220000000000e-01      1.000000000000e+00
 s           1
      2.974000000000e-02      1.000000000000e+00
 p           1
      7.270000000000e-01      1.000000000000e+00
 p           1
      1.410000000000e-01      1.000000000000e+00

12
 s           3
      1.301000000000e+01      3.349872639000e-02
      1.962000000000e+00      2.348008011741e-01
      4.446000000000e-01      8.136829578829e-01
 s           1
      1.220000000000e-01      1.000000000000e+00
 s           1
      2.974000000000e-02      1.000000000000e+00
 p           1
      7.270000000000e-01      1.000000000000e+00
 p           1
      1.410000000000e-01      1.000000000000e+00

13
 s           3
      1.301000000000e+01      3.349872639000e-02
      1.962000000000e+00      2.348008011741e-01
      4.446000000000e-01      8.136829578829e-01
 s           1
      1.220000000000e-01      1.000000000000e+00
 s           1
      2.974000000000e-02      1.000000000000e+00
 p           1
      7.270000000000e-01      1.000000000000e+00
 p           1
      1.410000000000e-01      1.000000000000e+00

14
 s           3
      1.301000000000e+01      3.349872639000e-02
      1.962000000000e+00      2.348008011741e-01
      4.446000000000e-01      8.136829578829e-01
 s           1
      1.220000000000e-01      1.000000000000e+00
 s           1
      2.974000000000e-02      1.000000000000e+00
 p           1
      7.270000000000e-01      1.000000000000e+00
 p           1
      1.410000000000e-01      1.000000000000e+00

15
 s           3
      1.301000000000e+01      3.349872639000e-02
      1.962000000000e+00      2.348008011741e-01
      4.446000000000e-01      8.136829578829e-01
 s           1
      1.220000000000e-01      1.000000000000e+00
 s           1
      2.974000000000e-02      1.000000000000e+00
 p           1
      7.270000000000e-01      1.000000000000e+00
 p           1
      1.410000000000e-01      1.000000000000e+00

16
 s           3
      1.301000000000e+01      3.349872639000e-02
      1.962000000000e+00      2.348008011741e-01
      4.446000000000e-01      8.136829578829e-01
 s           1
      1.220000000000e-01      1.000000000000e+00
 s           1
      2.974000000000e-02      1.000000000000e+00
 p           1
      7.270000000000e-01      1.000000000000e+00
 p           1
      1.410000000000e-01      1.000000000000e+00

17
 s           3
      1.301000000000e+01      3.349872639000e-02
      1.962000000000e+00      2.348008011741e-01
      4.446000000000e-01      8.136829578829e-01
 s           1
      1.220000000000e-01      1.000000000000e+00
 s           1
      2.974000000000e-02      1.000000000000e+00
 p           1
      7.270000000000e-01      1.000000000000e+00
 p           1
      1.410000000000e-01      1.000000000000e+00

18
 s           3
      1.301000000000e+01      3.349872639000e-02
      1.962000000000e+00      2.348008011741e-01
      4.446000000000e-01      8.136829578829e-01
 s           1
      1.220000000000e-01      1.000000000000e+00
 s           1
      2.974000000000e-02      1.000000000000e+00
 p           1
      7.270000000000e-01      1.000000000000e+00
 p           1
      1.410000000000e-01      1.000000000000e+00


[5D]
[7F]
[9G]
[MO]
 Ene=  -15.610356
 Spin=  Alpha
 Occup=    2.000000
   1     0.0001075075776228
   2     0.0001879590276523
   3    -0.0075804133718558
   4     0.0017511358116934
   5     0.0000012446827036
   6     0.0000013249084701
   7    -0.0000173592060632
   8     0.0011320754269512
   9    -0.0090727566389557
  10    -0.0009802862901791
  11     0.0020987418878313
  12     0.0033053846308049
  13     0.0008694355271907
  14     0.0000097917135624
  15    -0.0000093640091573
  16    -0.0000113476662834
  17     0.0000224790310217
  18     0.0000112403114722
  19     0.0002036554168786
  20     0.0004687559871328
  21     0.0003198125782719
  22     0.0015091453390089
  23     0.0019810825224344
  24    -0.0000313506216140
  25    -0.0000254372704745
  26    -0.0088754360617855
  27     0.0051835179238594
  28    -0.0000837527041576
  29     0.0000467040736294
  30     0.0000079891637056
  31     0.0068999756097300
  32    -0.0125234092330159
  33    -0.0008442527903894
  34    -0.0034283872862435
  35     0.0037307521479395
  36     0.0000807107536590
  37    -0.0000149963346137
  38     0.0000263681883788
  39     0.0000055863569198
  40     0.0001042039051676
  41     0.0000423405610311
  42    -0.0006020534583707
  43    -0.0000197680484178
  44     0.0012147464496924
  45    -0.0038066085054800
  46     0.0027235025182093
  47    -0.0001939399983544
  48    -0.0003165575262569
  49     0.0049376840778281
  50    -0.0195876039580231
  51     0.0003036781340446
  52     0.0001409996522622
  53     0.0000992561488447
  54     0.0166571444483394
  55     0.0019339592857475
  56     0.0023310894592591
  57    -0.0025557074112334
  58     0.0027156954599668
  59     0.0001133314040911
  60     0.0000462530193874
  61    -0.0000036024353873
  62    -0.0000019165055045
  63     0.0001296239121352
  64     0.0001444160708038
  65     0.0007118009081450
  66    -0.0006748786266753
  67    -0.0014243094389565
  68     0.0013670466620793
  69    -0.0071226686950131
  70    -1.0031273227230875
  71    -0.0053924859538166
  72     0.0287943441229856
  73     0.0206312777476422
  74    -0.0006827110450044
  75    -0.0004272089010240
  76     0.0014044056209308
  77     0.0028719238843651
  78     0.0028021793132588
  79    -0.0044677606964630
  80     0.0036309545884197
  81     0.0014851596316553
  82    -0.0024418284520890
  83    -0.0000818380552303
  84    -0.0001442125064124
  85     0.0000327657032000
  86    -0.0000870756000567
  87    -0.0000807907935895
  88     0.0004779755363869
  89     0.0013601444284504
  90     0.0001901424820400
  91     0.0011203389369675
  92     0.0005501217109295
  93    -0.0001655796647854
  94    -0.0003671688093095
  95    -0.0019620382130262
  96     0.0040731638295165
  97     0.0000355536807478
  98    -0.0004142608211228
  99    -0.0000870227696496
 100     0.0000508209399147
 101     0.0017423919605969
 102     0.0004893747164178
 103     0.0011685224277430
 104     0.0012118739562002
 105     0.0003904789701723
 106     0.0002170189594333
 107    -0.0000000500631785
 108    -0.0000194776934113
 109     0.0000862502329134
 110    -0.0001287814555703
 111    -0.0004778113772682
 112    -0.0001428794285357
 113     0.0007229353443758
 114    -0.0019673384519816
 115    -0.0000766025678688
 116    -0.0000115720762893
 117     0.0000078112330980
 118    -0.0031869301178860
 119     0.0037102538285822
 120    -0.0000220883697207
 121     0.0000314885832335
 122    -0.0000030152103535
 123    -0.0023732885572807
 124    -0.0005848583461560
 125    -0.0008223518266926
 126     0.0016091143693101
 127    -0.0004812969239441
 128     0.0004887777638452
 129    -0.0000511168375295
 130    -0.0000063807231274
 131     0.0000103147831723
 132    -0.0000574810117546
 133    -0.0000517093683115
 134    -0.0000635589144389
 135    -0.0001832505573974
 136    -0.0001332946594842
 137    -0.0006752410884555
 138    -0.0001713867417183
 139    -0.0000753581573498
 140    -0.0001093063737891
 141     0.0008189223451067
 142     0.0078716972054434
 143     0.0000191989695774
 144     0.0000029225489597
 145     0.0000185756695669
 146     0.0018554360582391
 147    -0.0003297742255465
 148     0.0003477092561245
 149    -0.0016350515994186
 150     0.0021865652893057
 151     0.0001524348222583
 152    -0.0000485188724081
 153     0.0000449649194873
 154     0.0000347540428575
 155    -0.0000260127606122
 156     0.0000392883667075
 157     0.0001698776118368
 158    -0.0000008715952045
 159     0.0002576770732371
 160    -0.0008004335929764
 161     0.0006312037910668
 162    -0.0000601812490383
 163    -0.0000918804548389
 164     0.0039361450680272
 165    -0.0070552100134036
 166    -0.0000115972995460
 167     0.0000417760582864
 168     0.0000068473887153
 169     0.0013011583931814
 170     0.0000633920444230
 171    -0.0004093215568896
 172    -0.0016133005834625
 173     0.0011001353303670
 174    -0.0002896270818623
 175    -0.0000316853479453
 176     0.0000230633532586
 177     0.0000127572892474
 178    -0.0000053986652930
 179     0.0000133349597205
 180    -0.0001001638278960
 181    -0.0000260117127599
 182    -0.0003636791459652
 183    -0.0004552240969127
 184    -0.0004662555524126
 185     0.0000311069294246
 186     0.0000773661803149
 187    -0.0038577321314610
 188     0.0102081756684925
 189     0.0000514262024188
 190    -0.0000084085077758
 191     0.0000565762692614
 192    -0.0007843629259998
 193     0.0012363470845253
 194     0.0000526039715217
 195     0.0029977026452803
 196    -0.0000154799464005
 197     0.0006040855153142
 198    -0.0000768899298891
 199     0.0000799897323093
 200     0.0000428983473086
 201     0.0001290482416213
 202    -0.0000201128832536
 203     0.0003606880895242
 204    -0.0001942733805302
 205    -0.0007541224330792
 206     0.0005920420960634
 207    -0.0002337821587010
 208    -0.0001553701839618
 209    -0.0002348192399707
 210    -0.0085779009816280
 211    -0.0176546839372996
 212    -0.0002566008514338
 213     0.0001080190621992
 214    -0.0002770100586986
 215    -0.0053054572123772
 216     0.0027202298237878
 217    -0.0069751553828976
 218     0.0020583570776466
 219     0.0022325521424318
 220    -0.0026796417610077
 221     0.0001338238175741
 222     0.0002064974477112
 223     0.0000480639370459
 224    -0.0001653290411912
 225    -0.0001212730198422
 226    -0.0024357062825646
 227    -0.0031493157025268
 228     0.0016702602886889
 229     0.0010911782551714
 230     0.0016043991387432
 231    -0.0000121151059625
 232    -0.0021147775214341
 233    -0.0002332737598409
 234    -0.0000148757265457
 235     0.0000013458311455
 236     0.0000083788632596
 237     0.0003188327235117
 238    -0.0006619495694410
 239     0.0000833360853416
 240    -0.0000560738471636
 241     0.0020285750083785
 242    -0.0001110765486868
 243    -0.0000343332431475
 244    -0.0000071709486062
 245    -0.0000094986797411
 246    -0.0007147375362593
 247    -0.0009314893707439
 248    -0.0002974149989561
 249     0.0002292784181469
 250    -0.0005097060455616
 251    -0.0012501266899508
 252    -0.0000307839191937
 253    -0.0001309407925059
 254    -0.0000093306190804
 255     0.0017709157441483
 256     0.0004769127081915
 257     0.0004460975101688
 258    -0.0000755714789897
 259    -0.0011955395345010
 260     0.0000443957487099
 261     0.0000073920870850
 262    -0.0000256634740095
 263    -0.0000057918401994
 264     0.0003744324571600
 265    -0.0000712990649122
 266     0.0000043023427584
 267    -0.0000761075433838
 268    -0.0024062462051800
 269     0.0018097116015666
 270     0.0000233328922669
 271    -0.0000117212540909
 272     0.0000011815724729
 273    -0.0001083600983483
 274    -0.0005409771504509
 275    -0.0001955104725602
 276    -0.0000163999856544
 277     0.0012851545029119
 278    -0.0000384858193193
 279    -0.0000368927160817
 280     0.0000023889010071
 281     0.0000121463503079
 282     0.0002136513466214
 283     0.0000935463536735
 284    -0.0000406857058094
 285     0.0000091182032875
 286    -0.0015856930805773
 287     0.0006792615166516
 288    -0.0000407312192154
 289     0.0000241881600495
 290     0.0000247441950767
 291    -0.0002619210541938
 292     0.0005401732331730
 293     0.0001711669174150
 294     0.0002812576726550
 295    -0.0022512648370195
 296    -0.0017424104009566
 297     0.0000025194194941
 298    -0.0000849280027335
 299     0.0002154338857975
 300    -0.0012341790960647
 301     0.0004913226936591
 302    -0.0009319450976160
 Ene=  -11.311333
 Spin=  Alpha
 Occup=    2.000000
   1     0.0000347056609028
   2     0.0000569863100249
   3    -0.0040880992957479
   4     0.0060164571917714
   5     0.0000327475796366
   6     0.0000181485328725
   7     0.0000302201120275
   8    -0.0002640706929507
   9    -0.0079349001354441
  10    -0.0011718080521993
  11    -0.0020079832865496
  12     0.0008316556232960
  13    -0.0002105155732290
  14     0.0000332963695276
  15    -0.0000123612073099
  16    -0.0000207948204621
  17     0.0000291580022208
  18    -0.0000006753333640
  19     0.0001390978277285
  20     0.0003625024143091
  21     0.0002364487632267
  22     0.0008540747746114
  23     0.0017694480727457
  24    -0.0000280550932603
  25    -0.0000433576196473
  26    -0.0092083284570241
  27    -0.0111522264677563
  28     0.0001253583844505
  29    -0.0000225469263261
  30     0.0000293771852351
  31     0.0086270312804708
  32    -0.0091984951508460
  33     0.0004255062302504
  34     0.0027038663854181
  35     0.0001332146274792
  36     0.0001408696675310
  37     0.0000028334360348
  38    -0.0000321996878877
  39     0.0000160455807128
  40    -0.0000938577202882
  41    -0.0000297729777388
  42     0.0000418961920364
  43    -0.0004594492009997
  44     0.0009895535864941
  45    -0.0037812507764236
  46     0.0021233076102856
  47     0.0002567562675440
  48    -0.0000273006013649
  49     0.0122001007561287
  50     0.0059131644297976
  51    -0.0001859077382651
  52    -0.0000093747005272
  53    -0.0001344639929006
  54     0.0119367789958986
  55    -0.0050527880800835
  56     0.0011466158189171
  57     0.0030357768082065
  58    -0.0019698758767237
  59     0.0007437328015558
  60    -0.0000486989121780
  61    -0.0000648088983384
  62     0.0000575180766232
  63    -0.0001701093419068
  64    -0.0000855019936220
  65    -0.0008654890632699
  66    -0.0008316388069486
  67    -0.0002444780487456
  68     0.0000648772219154
  69    -0.0047991307968496
  70    -0.0001995496630109
  71    -0.0008067749082447
  72     0.0048044555903161
  73     0.0008610989460972
  74     0.0003403376431587
  75    -0.0002211253628344
  76     0.0000951552704143
  77     0.0012385632559606
  78     0.0011980311755801
  79    -0.0013329079541798
  80     0.0032229445417556
  81    -0.0000340072996757
  82    -0.0011938030452744
  83    -0.0000290556640340
  84     0.0001077020421497
  85    -0.0000359522435772
  86     0.0000922681114718
  87     0.0000371989472784
  88     0.0015455628613652
  89     0.0006016599927227
  90    -0.0001159183737037
  91    -0.0005556987086006
  92    -0.0000858682723183
  93    -0.0000548423532923
  94    -0.0001641835676840
  95    -0.0051712067227841
  96     0.0010059816038202
  97     0.0000233821060281