[Molden Format]
[Atoms] Angs
 c       1                    6  2.293207273677e+00 -6.097578840181e-01  9.968698267556e-01
 c       2                    6  2.160403784754e+00  8.188066819383e-01  9.491822341113e-01
 c       3                    6  1.057782027305e+00  1.413857121185e+00  3.372943647055e-01
 n       4                    7  1.396580181267e-01  5.713415005903e-01 -1.893888399241e-01
 b       5                    5  1.392932618141e-01 -8.726265810486e-01 -1.530118524076e-01
 c       6                    6  1.339688538981e+00 -1.513150009308e+00  4.985458901053e-01
 c       7                    6 -1.234127229654e+00 -9.194817123173e-01 -1.017623920878e+00
 c       8                    6 -2.536761791807e+00 -6.422215213470e-01 -2.617616448207e-01
 c       9                    6 -2.398203746290e+00  7.133634470038e-01 -2.467936681297e-01
 c      10                    6 -1.085932449341e+00  6.702251659119e-01 -1.021194576384e+00
 h      11                    1  3.207609891611e+00 -9.988400733060e-01  1.462729129491e+00
 h      12                    1  2.939281441178e+00  1.455217523354e+00  1.375610506515e+00
 h      13                    1  9.182012117050e-01  2.497427712214e+00  2.572686956551e-01
 h      14                    1  1.556048013106e+00 -2.583443137539e+00  5.796383914044e-01
 h      15                    1 -1.290991741406e+00 -1.463751144643e+00 -1.970134434663e+00
 h      16                    1 -3.290281588184e+00 -1.318065699029e+00  1.506416408902e-01
 h      17                    1 -2.958271074402e+00  1.536802112887e+00  2.022778911296e-01
 h      18                    1 -9.566038411748e-01  1.244296497472e+00 -1.950149633555e+00
[GTO]
1
 s           8
      6.665000000000e+03      6.915839628130e-04
      1.000000000000e+03      5.325796152934e-03
      2.280000000000e+02      2.706072104203e-02
      6.471000000000e+01      1.016568461408e-01
      2.106000000000e+01      2.745748236174e-01
      7.495000000000e+00      4.482943189238e-01
      2.797000000000e+00      2.849026107152e-01
      5.215000000000e-01      1.519485920608e-02
 s           8
      6.665000000000e+03     -2.932696526865e-04
      1.000000000000e+03     -2.318035473975e-03
      2.280000000000e+02     -1.149978603857e-02
      6.471000000000e+01     -4.682672700979e-02
      2.106000000000e+01     -1.284661687505e-01
      7.495000000000e+00     -3.012662724629e-01
      2.797000000000e+00     -2.556307023301e-01
      5.215000000000e-01      1.093793361012e+00
 s           1
      1.596000000000e-01      1.000000000000e+00
 s           1
      4.690000000000e-02      1.000000000000e+00
 p           3
      9.439000000000e+00      5.697925159004e-02
      2.002000000000e+00      3.132072115007e-01
      5.456000000000e-01      7.603767417375e-01
 p           1
      1.517000000000e-01      1.000000000000e+00
 p           1
      4.041000000000e-02      1.000000000000e+00
 d           1
      5.500000000000e-01      1.000000000000e+00
 d           1
      1.510000000000e-01      1.000000000000e+00

2
 s           8
      6.665000000000e+03      6.915839628130e-04
      1.000000000000e+03      5.325796152934e-03
      2.280000000000e+02      2.706072104203e-02
      6.471000000000e+01      1.016568461408e-01
      2.106000000000e+01      2.745748236174e-01
      7.495000000000e+00      4.482943189238e-01
      2.797000000000e+00      2.849026107152e-01
      5.215000000000e-01      1.519485920608e-02
 s           8
      6.665000000000e+03     -2.932696526865e-04
      1.000000000000e+03     -2.318035473975e-03
      2.280000000000e+02     -1.149978603857e-02
      6.471000000000e+01     -4.682672700979e-02
      2.106000000000e+01     -1.284661687505e-01
      7.495000000000e+00     -3.012662724629e-01
      2.797000000000e+00     -2.556307023301e-01
      5.215000000000e-01      1.093793361012e+00
 s           1
      1.596000000000e-01      1.000000000000e+00
 s           1
      4.690000000000e-02      1.000000000000e+00
 p           3
      9.439000000000e+00      5.697925159004e-02
      2.002000000000e+00      3.132072115007e-01
      5.456000000000e-01      7.603767417375e-01
 p           1
      1.517000000000e-01      1.000000000000e+00
 p           1
      4.041000000000e-02      1.000000000000e+00
 d           1
      5.500000000000e-01      1.000000000000e+00
 d           1
      1.510000000000e-01      1.000000000000e+00

3
 s           8
      6.665000000000e+03      6.915839628130e-04
      1.000000000000e+03      5.325796152934e-03
      2.280000000000e+02      2.706072104203e-02
      6.471000000000e+01      1.016568461408e-01
      2.106000000000e+01      2.745748236174e-01
      7.495000000000e+00      4.482943189238e-01
      2.797000000000e+00      2.849026107152e-01
      5.215000000000e-01      1.519485920608e-02
 s           8
      6.665000000000e+03     -2.932696526865e-04
      1.000000000000e+03     -2.318035473975e-03
      2.280000000000e+02     -1.149978603857e-02
      6.471000000000e+01     -4.682672700979e-02
      2.106000000000e+01     -1.284661687505e-01
      7.495000000000e+00     -3.012662724629e-01
      2.797000000000e+00     -2.556307023301e-01
      5.215000000000e-01      1.093793361012e+00
 s           1
      1.596000000000e-01      1.000000000000e+00
 s           1
      4.690000000000e-02      1.000000000000e+00
 p           3
      9.439000000000e+00      5.697925159004e-02
      2.002000000000e+00      3.132072115007e-01
      5.456000000000e-01      7.603767417375e-01
 p           1
      1.517000000000e-01      1.000000000000e+00
 p           1
      4.041000000000e-02      1.000000000000e+00
 d           1
      5.500000000000e-01      1.000000000000e+00
 d           1
      1.510000000000e-01      1.000000000000e+00

4
 s           8
      9.046000000000e+03      6.996174134255e-04
      1.357000000000e+03      5.386054629929e-03
      3.093000000000e+02      2.739102118906e-02
      8.773000000000e+01      1.031505919820e-01
      2.856000000000e+01      2.785706633174e-01
      1.021000000000e+01      4.482948494541e-01
      3.838000000000e+00      2.780859283953e-01
      7.466000000000e-01      1.543156123327e-02
 s           8
      9.046000000000e+03     -3.049900959534e-04
      1.357000000000e+03     -2.408026378508e-03
      3.093000000000e+02     -1.194444872518e-02
      8.773000000000e+01     -4.892599290902e-02
      2.856000000000e+01     -1.344727247250e-01
      1.021000000000e+01     -3.151125777001e-01
      3.838000000000e+00     -2.428578325496e-01
      7.466000000000e-01      1.094382206854e+00
 s           1
      2.248000000000e-01      1.000000000000e+00
 s           1
      6.124000000000e-02      1.000000000000e+00
 p           3
      1.355000000000e+01      5.890567677213e-02
      2.917000000000e+00      3.204611067143e-01
      7.973000000000e-01      7.530420617921e-01
 p           1
      2.185000000000e-01      1.000000000000e+00
 p           1
      5.611000000000e-02      1.000000000000e+00
 d           1
      8.170000000000e-01      1.000000000000e+00
 d           1
      2.300000000000e-01      1.000000000000e+00

5
 s           8
      4.570000000000e+03      6.955544180306e-04
      6.859000000000e+02      5.349572988100e-03
      1.565000000000e+02      2.711662870523e-02
      4.447000000000e+01      1.013150961206e-01
      1.448000000000e+01      2.718808293065e-01
      5.131000000000e+00      4.481159306152e-01
      1.898000000000e+00      2.899372621010e-01
      3.329000000000e-01      1.431283099861e-02
 s           8
      4.570000000000e+03     -2.812802240142e-04
      6.859000000000e+02     -2.219887811105e-03
      1.565000000000e+02     -1.101647150743e-02
      4.447000000000e+01     -4.434918985248e-02
      1.448000000000e+01     -1.209120479502e-01
      5.131000000000e+00     -2.807378995535e-01
      1.898000000000e+00     -2.660668087326e-01
      3.329000000000e-01      1.091784130514e+00
 s           1
      1.043000000000e-01      1.000000000000e+00
 s           1
      3.105000000000e-02      1.000000000000e+00
 p           3
      6.001000000000e+00      5.416586334015e-02
      1.241000000000e+00      3.023798901809e-01
      3.364000000000e-01      7.712922165481e-01
 p           1
      9.538000000000e-02      1.000000000000e+00
 p           1
      2.378000000000e-02      1.000000000000e+00
 d           1
      3.430000000000e-01      1.000000000000e+00
 d           1
      9.040000000000e-02      1.000000000000e+00

6
 s           8
      6.665000000000e+03      6.915839628130e-04
      1.000000000000e+03      5.325796152934e-03
      2.280000000000e+02      2.706072104203e-02
      6.471000000000e+01      1.016568461408e-01
      2.106000000000e+01      2.745748236174e-01
      7.495000000000e+00      4.482943189238e-01
      2.797000000000e+00      2.849026107152e-01
      5.215000000000e-01      1.519485920608e-02
 s           8
      6.665000000000e+03     -2.932696526865e-04
      1.000000000000e+03     -2.318035473975e-03
      2.280000000000e+02     -1.149978603857e-02
      6.471000000000e+01     -4.682672700979e-02
      2.106000000000e+01     -1.284661687505e-01
      7.495000000000e+00     -3.012662724629e-01
      2.797000000000e+00     -2.556307023301e-01
      5.215000000000e-01      1.093793361012e+00
 s           1
      1.596000000000e-01      1.000000000000e+00
 s           1
      4.690000000000e-02      1.000000000000e+00
 p           3
      9.439000000000e+00      5.697925159004e-02
      2.002000000000e+00      3.132072115007e-01
      5.456000000000e-01      7.603767417375e-01
 p           1
      1.517000000000e-01      1.000000000000e+00
 p           1
      4.041000000000e-02      1.000000000000e+00
 d           1
      5.500000000000e-01      1.000000000000e+00
 d           1
      1.510000000000e-01      1.000000000000e+00

7
 s           8
      6.665000000000e+03      6.915839628130e-04
      1.000000000000e+03      5.325796152934e-03
      2.280000000000e+02      2.706072104203e-02
      6.471000000000e+01      1.016568461408e-01
      2.106000000000e+01      2.745748236174e-01
      7.495000000000e+00      4.482943189238e-01
      2.797000000000e+00      2.849026107152e-01
      5.215000000000e-01      1.519485920608e-02
 s           8
      6.665000000000e+03     -2.932696526865e-04
      1.000000000000e+03     -2.318035473975e-03
      2.280000000000e+02     -1.149978603857e-02
      6.471000000000e+01     -4.682672700979e-02
      2.106000000000e+01     -1.284661687505e-01
      7.495000000000e+00     -3.012662724629e-01
      2.797000000000e+00     -2.556307023301e-01
      5.215000000000e-01      1.093793361012e+00
 s           1
      1.596000000000e-01      1.000000000000e+00
 s           1
      4.690000000000e-02      1.000000000000e+00
 p           3
      9.439000000000e+00      5.697925159004e-02
      2.002000000000e+00      3.132072115007e-01
      5.456000000000e-01      7.603767417375e-01
 p           1
      1.517000000000e-01      1.000000000000e+00
 p           1
      4.041000000000e-02      1.000000000000e+00
 d           1
      5.500000000000e-01      1.000000000000e+00
 d           1
      1.510000000000e-01      1.000000000000e+00

8
 s           8
      6.665000000000e+03      6.915839628130e-04
      1.000000000000e+03      5.325796152934e-03
      2.280000000000e+02      2.706072104203e-02
      6.471000000000e+01      1.016568461408e-01
      2.106000000000e+01      2.745748236174e-01
      7.495000000000e+00      4.482943189238e-01
      2.797000000000e+00      2.849026107152e-01
      5.215000000000e-01      1.519485920608e-02
 s           8
      6.665000000000e+03     -2.932696526865e-04
      1.000000000000e+03     -2.318035473975e-03
      2.280000000000e+02     -1.149978603857e-02
      6.471000000000e+01     -4.682672700979e-02
      2.106000000000e+01     -1.284661687505e-01
      7.495000000000e+00     -3.012662724629e-01
      2.797000000000e+00     -2.556307023301e-01
      5.215000000000e-01      1.093793361012e+00
 s           1
      1.596000000000e-01      1.000000000000e+00
 s           1
      4.690000000000e-02      1.000000000000e+00
 p           3
      9.439000000000e+00      5.697925159004e-02
      2.002000000000e+00      3.132072115007e-01
      5.456000000000e-01      7.603767417375e-01
 p           1
      1.517000000000e-01      1.000000000000e+00
 p           1
      4.041000000000e-02      1.000000000000e+00
 d           1
      5.500000000000e-01      1.000000000000e+00
 d           1
      1.510000000000e-01      1.000000000000e+00

9
 s           8
      6.665000000000e+03      6.915839628130e-04
      1.000000000000e+03      5.325796152934e-03
      2.280000000000e+02      2.706072104203e-02
      6.471000000000e+01      1.016568461408e-01
      2.106000000000e+01      2.745748236174e-01
      7.495000000000e+00      4.482943189238e-01
      2.797000000000e+00      2.849026107152e-01
      5.215000000000e-01      1.519485920608e-02
 s           8
      6.665000000000e+03     -2.932696526865e-04
      1.000000000000e+03     -2.318035473975e-03
      2.280000000000e+02     -1.149978603857e-02
      6.471000000000e+01     -4.682672700979e-02
      2.106000000000e+01     -1.284661687505e-01
      7.495000000000e+00     -3.012662724629e-01
      2.797000000000e+00     -2.556307023301e-01
      5.215000000000e-01      1.093793361012e+00
 s           1
      1.596000000000e-01      1.000000000000e+00
 s           1
      4.690000000000e-02      1.000000000000e+00
 p           3
      9.439000000000e+00      5.697925159004e-02
      2.002000000000e+00      3.132072115007e-01
      5.456000000000e-01      7.603767417375e-01
 p           1
      1.517000000000e-01      1.000000000000e+00
 p           1
      4.041000000000e-02      1.000000000000e+00
 d           1
      5.500000000000e-01      1.000000000000e+00
 d           1
      1.510000000000e-01      1.000000000000e+00

10
 s           8
      6.665000000000e+03      6.915839628130e-04
      1.000000000000e+03      5.325796152934e-03
      2.280000000000e+02      2.706072104203e-02
      6.471000000000e+01      1.016568461408e-01
      2.106000000000e+01      2.745748236174e-01
      7.495000000000e+00      4.482943189238e-01
      2.797000000000e+00      2.849026107152e-01
      5.215000000000e-01      1.519485920608e-02
 s           8
      6.665000000000e+03     -2.932696526865e-04
      1.000000000000e+03     -2.318035473975e-03
      2.280000000000e+02     -1.149978603857e-02
      6.471000000000e+01     -4.682672700979e-02
      2.106000000000e+01     -1.284661687505e-01
      7.495000000000e+00     -3.012662724629e-01
      2.797000000000e+00     -2.556307023301e-01
      5.215000000000e-01      1.093793361012e+00
 s           1
      1.596000000000e-01      1.000000000000e+00
 s           1
      4.690000000000e-02      1.000000000000e+00
 p           3
      9.439000000000e+00      5.697925159004e-02
      2.002000000000e+00      3.132072115007e-01
      5.456000000000e-01      7.603767417375e-01
 p           1
      1.517000000000e-01      1.000000000000e+00
 p           1
      4.041000000000e-02      1.000000000000e+00
 d           1
      5.500000000000e-01      1.000000000000e+00
 d           1
      1.510000000000e-01      1.000000000000e+00

11
 s           3
      1.301000000000e+01      3.349872639000e-02
      1.962000000000e+00      2.348008011741e-01
      4.446000000000e-01      8.136829578829e-01
 s           1
      1.220000000000e-01      1.000000000000e+00
 s           1
      2.974000000000e-02      1.000000000000e+00
 p           1
      7.270000000000e-01      1.000000000000e+00
 p           1
      1.410000000000e-01      1.000000000000e+00

12
 s           3
      1.301000000000e+01      3.349872639000e-02
      1.962000000000e+00      2.348008011741e-01
      4.446000000000e-01      8.136829578829e-01
 s           1
      1.220000000000e-01      1.000000000000e+00
 s           1
      2.974000000000e-02      1.000000000000e+00
 p           1
      7.270000000000e-01      1.000000000000e+00
 p           1
      1.410000000000e-01      1.000000000000e+00

13
 s           3
      1.301000000000e+01      3.349872639000e-02
      1.962000000000e+00      2.348008011741e-01
      4.446000000000e-01      8.136829578829e-01
 s           1
      1.220000000000e-01      1.000000000000e+00
 s           1
      2.974000000000e-02      1.000000000000e+00
 p           1
      7.270000000000e-01      1.000000000000e+00
 p           1
      1.410000000000e-01      1.000000000000e+00

14
 s           3
      1.301000000000e+01      3.349872639000e-02
      1.962000000000e+00      2.348008011741e-01
      4.446000000000e-01      8.136829578829e-01
 s           1
      1.220000000000e-01      1.000000000000e+00
 s           1
      2.974000000000e-02      1.000000000000e+00
 p           1
      7.270000000000e-01      1.000000000000e+00
 p           1
      1.410000000000e-01      1.000000000000e+00

15
 s           3
      1.301000000000e+01      3.349872639000e-02
      1.962000000000e+00      2.348008011741e-01
      4.446000000000e-01      8.136829578829e-01
 s           1
      1.220000000000e-01      1.000000000000e+00
 s           1
      2.974000000000e-02      1.000000000000e+00
 p           1
      7.270000000000e-01      1.000000000000e+00
 p           1
      1.410000000000e-01      1.000000000000e+00

16
 s           3
      1.301000000000e+01      3.349872639000e-02
      1.962000000000e+00      2.348008011741e-01
      4.446000000000e-01      8.136829578829e-01
 s           1
      1.220000000000e-01      1.000000000000e+00
 s           1
      2.974000000000e-02      1.000000000000e+00
 p           1
      7.270000000000e-01      1.000000000000e+00
 p           1
      1.410000000000e-01      1.000000000000e+00

17
 s           3
      1.301000000000e+01      3.349872639000e-02
      1.962000000000e+00      2.348008011741e-01
      4.446000000000e-01      8.136829578829e-01
 s           1
      1.220000000000e-01      1.000000000000e+00
 s           1
      2.974000000000e-02      1.000000000000e+00
 p           1
      7.270000000000e-01      1.000000000000e+00
 p           1
      1.410000000000e-01      1.000000000000e+00

18
 s           3
      1.301000000000e+01      3.349872639000e-02
      1.962000000000e+00      2.348008011741e-01
      4.446000000000e-01      8.136829578829e-01
 s           1
      1.220000000000e-01      1.000000000000e+00
 s           1
      2.974000000000e-02      1.000000000000e+00
 p           1
      7.270000000000e-01      1.000000000000e+00
 p           1
      1.410000000000e-01      1.000000000000e+00


[5D]
[7F]
[9G]
[MO]
 Ene=  -15.596191
 Spin=  Alpha
 Occup=    2.000000
   1    -0.0000347182705117
   2    -0.0000695760594764
   3     0.0014685972122905
   4     0.0082430986885952
   5     0.0000163500862075
   6    -0.0000118953410415
   7     0.0000114068236474
   8    -0.0000298010684646
   9     0.0039980707111236
  10    -0.0000433613618838
  11    -0.0030662490197137
  12    -0.0042423488306051
  13    -0.0015862506846663
  14     0.0000108506101625
  15    -0.0000310537507388
  16     0.0000226178534143
  17    -0.0000207476233360
  18     0.0000336951891873
  19    -0.0001379586088452
  20     0.0000272324475428
  21    -0.0006526967781205
  22    -0.0002336152625452
  23    -0.0011376786755768
  24    -0.0000204734586924
  25    -0.0000536440126183
  26     0.0028261266373515
  27    -0.0088963337718858
  28     0.0001130127599775
  29    -0.0000279988037698
  30     0.0000649089743484
  31    -0.0005314352694298
  32     0.0049948663492479
  33    -0.0002725469104030
  34     0.0042770112707510
  35    -0.0016540928919999
  36     0.0022357466611869
  37    -0.0000312514291694
  38    -0.0000309340508520
  39     0.0000267946859588
  40    -0.0000865557093864
  41     0.0000346795875195
  42     0.0005197121958343
  43     0.0000546899888012
  44    -0.0006215867229613
  45     0.0010045021928904
  46    -0.0008979637741363
  47     0.0003504797085292
  48     0.0005273427853081
  49     0.0058886331685175
  50     0.0216626285496304
  51    -0.0002798842933891
  52    -0.0002348635168797
  53    -0.0001548850156032
  54    -0.0072099189175433
  55    -0.0060766709929401
  56    -0.0041450388445932
  57     0.0013037745877186
  58    -0.0038418934855563
  59     0.0007000257130769
  60    -0.0000465714311515
  61    -0.0000863465593478
  62    -0.0001692806773838
  63    -0.0001398908946136
  64    -0.0003084219706194
  65    -0.0009741555555989
  66     0.0003806979385017
  67     0.0020225765005585
  68    -0.0015115412193742
  69     0.0034948982755013
  70     1.0031793610789956
  71     0.0056416420666692
  72    -0.0261076803830536
  73    -0.0091050002245522
  74    -0.0000054108631086
  75     0.0006835762949303
  76    -0.0000241267732841
  77     0.0014612955810592
  78    -0.0027483207579877
  79     0.0006079423179478
  80    -0.0012407527674896
  81    -0.0035952283520232
  82    -0.0004570789914298
  83    -0.0001545292601937
  84     0.0001928781038330
  85     0.0001462976558700
  86    -0.0000154552634795
  87     0.0002450026189752
  88     0.0006577595830973
  89    -0.0021668172220690
  90    -0.0011002916619872
  91    -0.0017168114560029
  92    -0.0017897962986171
  93     0.0001712410042546
  94     0.0003305290351330
  95    -0.0016063173390839
  96    -0.0038473364542558
  97    -0.0001065648127219
  98     0.0002605159212152
  99    -0.0000831806309884
 100     0.0002321866417477
 101    -0.0034557918576177
 102    -0.0002925941138504
 103     0.0000766547876396
 104    -0.0000156667479913
 105     0.0001011314177231
 106    -0.0000140192634368
 107     0.0000631201254133
 108    -0.0001082496562796
 109     0.0000240719899211
 110    -0.0001742475274932
 111     0.0003116573540904
 112     0.0014399131006192
 113    -0.0011537119331730
 114     0.0021035139595465
 115    -0.0021129268043153
 116     0.0000117183716723
 117    -0.0000005181306973
 118     0.0004358475051771
 119    -0.0119422559382900
 120     0.0000245200289173
 121    -0.0000470152267421
 122     0.0000068002883675
 123     0.0019610275475595
 124     0.0008485498498581
 125     0.0010537170030661
 126    -0.0027515268579667
 127    -0.0020056023881351
 128    -0.0015225855098833
 129     0.0000448812737705
 130    -0.0000385958283875
 131     0.0000232992622820
 132     0.0000119173675670
 133     0.0000459817689637
 134    -0.0001301377761665
 135     0.0003508858603811
 136     0.0002151211116744
 137     0.0004021906415299
 138     0.0003605286406581
 139    -0.0000274836241891
 140    -0.0000364388870300
 141    -0.0033019198486626
 142     0.0070669222697239
 143    -0.0000370017978067
 144    -0.0001140947049593
 145     0.0000368028392941
 146    -0.0016742852821423
 147    -0.0019314786641720
 148    -0.0017082822763892
 149     0.0000602621741300
 150     0.0011373543046008
 151     0.0010586922277756
 152    -0.0000366316606733
 153     0.0000551950287342
 154     0.0000019753559746
 155     0.0000620107612225
 156     0.0000324884065008
 157     0.0001253546115006
 158     0.0001185425895662
 159    -0.0004066307917017
 160    -0.0000662486474533
 161    -0.0008940441030904
 162     0.0001304000858697
 163     0.0002143194555773
 164    -0.0037080294749689
 165    -0.0020800099989214
 166     0.0000530024182534
 167    -0.0000295654836195
 168    -0.0000354184449741
 169    -0.0003782537001533
 170    -0.0029908159131606
 171     0.0005582349966232
 172    -0.0007769290404961
 173    -0.0001734144409869
 174     0.0002520356845694
 175     0.0000706457943920
 176     0.0000066496568915
 177    -0.0000195725940686
 178     0.0000016724569859
 179    -0.0000635667148513
 180     0.0001214478602107
 181    -0.0001762360575850
 182     0.0001320504977352
 183     0.0005818655233326
 184     0.0001289237402092
 185     0.0000168338369134
 186     0.0000051478526520
 187     0.0045626416123435
 188     0.0007632965571127
 189    -0.0000415879505987
 190     0.0000061685759020
 191    -0.0000228668296846
 192    -0.0006808497191371
 193    -0.0031151304208086
 194    -0.0010958699651879
 195     0.0001012452616806
 196    -0.0000216699548127
 197    -0.0000719563981455
 198     0.0000957825526037
 199     0.0000290399719230
 200    -0.0000262478278813
 201    -0.0001665379741825
 202     0.0000528434983098
 203    -0.0002062774880240
 204    -0.0000047626831927
 205     0.0004507972577327
 206    -0.0011931229819979
 207     0.0004512918581873
 208    -0.0001630221454923
 209    -0.0002601925380718
 210     0.0090975427127900
 211    -0.0029679103899862
 212     0.0003515552676153
 213     0.0000800970081698
 214     0.0002383883734403
 215     0.0075566444508601
 216    -0.0039427388649835
 217     0.0068922589320988
 218     0.0003807124298145
 219     0.0011540785277370
 220     0.0003634744531597
 221     0.0000334063275028
 222     0.0000087363326693
 223    -0.0000982495546200
 224     0.0001512999010254
 225     0.0000293704012461
 226     0.0002652422083687
 227     0.0036805674328046
 228    -0.0013094691608829
 229    -0.0001713596658301
 230    -0.0022178856715707
 231     0.0000092267627906
 232    -0.0002669820858889
 233     0.0003780258588420
 234    -0.0000209844531343
 235     0.0000031400058994
 236    -0.0000120906217305
 237     0.0000534707897990
 238     0.0002761375232977
 239     0.0000151664573883
 240    -0.0000470359000800
 241    -0.0020241249273688
 242    -0.0005741775308589
 243     0.0000362727744824
 244     0.0000032304892049
 245     0.0000201442936147
 246     0.0006338882558805
 247     0.0004614304910462
 248     0.0004036123136792
 249    -0.0003229579008902
 250     0.0013338537760730
 251     0.0012617607956632
 252     0.0000434952303712
 253     0.0002009521426192
 254     0.0000250363301196
 255    -0.0010339884855042
 256    -0.0007415701264570
 257    -0.0005996638283762
 258     0.0000656527078341
 259     0.0002397180255489
 260    -0.0005876707676729
 261    -0.0000089513113116
 262     0.0000245666166012
 263    -0.0000050563925308
 264    -0.0000604488932022
 265    -0.0001323467193107
 266     0.0000038864350827
 267     0.0000537154442799
 268    -0.0024183049218773
 269     0.0009868114642667
 270     0.0000477012530910
 271     0.0000302228505565
 272     0.0000160751085875
 273     0.0000087597004620
 274    -0.0003568221773335
 275    -0.0005205260169294
 276     0.0000081026418455
 277    -0.0018945660158662
 278    -0.0002812949302551
 279     0.0000238175097017
 280     0.0000208373279788
 281    -0.0000322572655795
 282    -0.0003825840605698
 283    -0.0003340595527315
 284     0.0001945233675894
 285    -0.0000240037788590
 286     0.0016519354369416
 287    -0.0001493427149105
 288    -0.0000095519126940
 289    -0.0000313992024483
 290    -0.0000241274473291
 291     0.0002453661596913
 292    -0.0005823073690266
 293    -0.0003177708880236
 294    -0.0001536783534555
 295     0.0036254585898823
 296     0.0000801326041237
 297    -0.0000219634090927
 298     0.0000519709903253
 299    -0.0001438787958632
 300     0.0009873594147957
 301    -0.0005527793464922
 302     0.0007372424622457
 Ene=  -11.285911
 Spin=  Alpha
 Occup=    2.000000
   1     0.0000984294448858
   2     0.0001507031203130
   3    -0.0063891179055868
   4     0.0023304396902172
   5     0.0000172613831820
   6    -0.0000194623989094
   7     0.0000068489780342
   8     0.0023061612074925
   9    -0.0052404559033559
  10     0.0011544538693321
  11     0.0006136609774055
  12     0.0003010600482091
  13     0.0004514714769364
  14     0.0000571842490768
  15    -0.0000707816058498
  16     0.0000140360423971
  17    -0.0000100057924507
  18     0.0000154261701312
  19    -0.0001214198256389
  20     0.0000919637480339
  21     0.0004713359633706
  22    -0.0000612088845079
  23     0.0010216793917353
  24    -0.0013016484690392
  25    -0.0000717086395702
  26    -0.0059983054457798
  27     0.0053807370467012
  28     0.0000192948470277
  29     0.0000483430590526
  30     0.0000072010060296
  31     0.0055169754961942
  32    -0.0064426803838509
  33     0.0026461934496327
  34    -0.0007639240131416
  35     0.0020635314204444
  36    -0.0005524637227609
  37    -0.0000205345159160
  38    -0.0000182699215891
  39    -0.0000271732389766
  40    -0.0000755052868151
  41    -0.0000633466604360
  42    -0.0006412012031123
  43    -0.0007429852183262
  44     0.0010281085238676
  45    -0.0024850149572247
  46     0.0018987097386822
  47    -0.1070450098440450
  48    -0.0009041330533956
  49     0.0093285983648306
  50    -0.0097245692125215
  51     0.0001412321088249
  52     0.0000943243361533
  53     0.0001151751077103
  54     0.0085769395207074
  55    -0.0033451206265789
  56     0.0052284679885796
  57    -0.0027167119170190
  58     0.0024893063212418
  59    -0.0015085661475882
  60    -0.0000635994708272
  61    -0.0001588688010004
  62    -0.0000422984529556
  63    -0.0002206593436584
  64    -0.0000096273724538
  65    -0.0002887742221729
  66     0.0000515945530452
  67    -0.0017458079854300
  68    -0.0006884216253406
  69    -0.0023755743221617
  70     0.0000592347059440
  71     0.0003849512889122
  72     0.0033720988453066
  73     0.0146161142597581
  74    -0.0004025165689154
  75    -0.0000038210936560
  76    -0.0002176401628424
  77     0.0010391741042507
  78     0.0011139039407893
  79     0.0012078378612122
  80     0.0050918379830277
  81    -0.0025327744694564
  82     0.0038408414067482
  83    -0.0000124398431393
  84    -0.0000299405330335
  85    -0.0000169327333534
  86    -0.0000108859475072
  87    -0.0000596986380787
  88    -0.0002897877962002
  89    -0.0017956711213356
  90     0.0001480702262037
  91    -0.0013281809933033
  92     0.0006233691791962
  93    -0.0005373990198480
  94    -0.0008777673250006
  95     0.0034648535130537
  96     0.0009774009965220
  97     0.0000667591590701