[Molden Format]
[Atoms] Angs
 c       1                    6  2.386470393921e+00 -6.053789257272e-01  8.843979107631e-01
 c       2                    6  2.211555685040e+00  8.181989498154e-01  9.243904360328e-01
 c       3                    6  1.022634498703e+00  1.406870638294e+00  4.889309090946e-01
 n       4                    7  3.074668286126e-02  5.698631009473e-01  9.977463511612e-02
 b       5                    5  6.638269866743e-02 -8.770321059275e-01  1.010517157276e-01
 c       6                    6  1.368105826664e+00 -1.511786834401e+00  5.364416955328e-01
 c       7                    6 -1.251126718782e+00 -9.481553019557e-01 -8.504723099141e-01
 c       8                    6 -2.654524428282e+00 -6.045265217600e-01 -3.427446214957e-01
 c       9                    6 -2.491846802654e+00  7.505052383789e-01 -3.913638862036e-01
 c      10                    6 -1.069353215026e+00  6.366460455708e-01 -9.075934159032e-01
 h      11                    1  3.393165185553e+00 -9.817974069752e-01  1.097574667202e+00
 h      12                    1  3.034356963319e+00  1.459452152595e+00  1.242471434687e+00
 h      13                    1  8.741757739594e-01  2.486867172472e+00  4.246623642281e-01
 h      14                    1  1.628425498531e+00 -2.574921664428e+00  4.969762403870e-01
 h      15                    1 -1.172667565195e+00 -1.520447036521e+00 -1.784616918011e+00
 h      16                    1 -3.498268379961e+00 -1.231925717662e+00 -4.343643982824e-02
 h      17                    1 -3.122920023582e+00  1.605073915566e+00 -1.362015009190e-01
 h      18                    1 -7.553120737348e-01  1.122494301720e+00 -1.840242916495e+00
[GTO]
1
 s           8
      6.665000000000e+03      6.915839628130e-04
      1.000000000000e+03      5.325796152934e-03
      2.280000000000e+02      2.706072104203e-02
      6.471000000000e+01      1.016568461408e-01
      2.106000000000e+01      2.745748236174e-01
      7.495000000000e+00      4.482943189238e-01
      2.797000000000e+00      2.849026107152e-01
      5.215000000000e-01      1.519485920608e-02
 s           8
      6.665000000000e+03     -2.932696526865e-04
      1.000000000000e+03     -2.318035473975e-03
      2.280000000000e+02     -1.149978603857e-02
      6.471000000000e+01     -4.682672700979e-02
      2.106000000000e+01     -1.284661687505e-01
      7.495000000000e+00     -3.012662724629e-01
      2.797000000000e+00     -2.556307023301e-01
      5.215000000000e-01      1.093793361012e+00
 s           1
      1.596000000000e-01      1.000000000000e+00
 s           1
      4.690000000000e-02      1.000000000000e+00
 p           3
      9.439000000000e+00      5.697925159004e-02
      2.002000000000e+00      3.132072115007e-01
      5.456000000000e-01      7.603767417375e-01
 p           1
      1.517000000000e-01      1.000000000000e+00
 p           1
      4.041000000000e-02      1.000000000000e+00
 d           1
      5.500000000000e-01      1.000000000000e+00
 d           1
      1.510000000000e-01      1.000000000000e+00

2
 s           8
      6.665000000000e+03      6.915839628130e-04
      1.000000000000e+03      5.325796152934e-03
      2.280000000000e+02      2.706072104203e-02
      6.471000000000e+01      1.016568461408e-01
      2.106000000000e+01      2.745748236174e-01
      7.495000000000e+00      4.482943189238e-01
      2.797000000000e+00      2.849026107152e-01
      5.215000000000e-01      1.519485920608e-02
 s           8
      6.665000000000e+03     -2.932696526865e-04
      1.000000000000e+03     -2.318035473975e-03
      2.280000000000e+02     -1.149978603857e-02
      6.471000000000e+01     -4.682672700979e-02
      2.106000000000e+01     -1.284661687505e-01
      7.495000000000e+00     -3.012662724629e-01
      2.797000000000e+00     -2.556307023301e-01
      5.215000000000e-01      1.093793361012e+00
 s           1
      1.596000000000e-01      1.000000000000e+00
 s           1
      4.690000000000e-02      1.000000000000e+00
 p           3
      9.439000000000e+00      5.697925159004e-02
      2.002000000000e+00      3.132072115007e-01
      5.456000000000e-01      7.603767417375e-01
 p           1
      1.517000000000e-01      1.000000000000e+00
 p           1
      4.041000000000e-02      1.000000000000e+00
 d           1
      5.500000000000e-01      1.000000000000e+00
 d           1
      1.510000000000e-01      1.000000000000e+00

3
 s           8
      6.665000000000e+03      6.915839628130e-04
      1.000000000000e+03      5.325796152934e-03
      2.280000000000e+02      2.706072104203e-02
      6.471000000000e+01      1.016568461408e-01
      2.106000000000e+01      2.745748236174e-01
      7.495000000000e+00      4.482943189238e-01
      2.797000000000e+00      2.849026107152e-01
      5.215000000000e-01      1.519485920608e-02
 s           8
      6.665000000000e+03     -2.932696526865e-04
      1.000000000000e+03     -2.318035473975e-03
      2.280000000000e+02     -1.149978603857e-02
      6.471000000000e+01     -4.682672700979e-02
      2.106000000000e+01     -1.284661687505e-01
      7.495000000000e+00     -3.012662724629e-01
      2.797000000000e+00     -2.556307023301e-01
      5.215000000000e-01      1.093793361012e+00
 s           1
      1.596000000000e-01      1.000000000000e+00
 s           1
      4.690000000000e-02      1.000000000000e+00
 p           3
      9.439000000000e+00      5.697925159004e-02
      2.002000000000e+00      3.132072115007e-01
      5.456000000000e-01      7.603767417375e-01
 p           1
      1.517000000000e-01      1.000000000000e+00
 p           1
      4.041000000000e-02      1.000000000000e+00
 d           1
      5.500000000000e-01      1.000000000000e+00
 d           1
      1.510000000000e-01      1.000000000000e+00

4
 s           8
      9.046000000000e+03      6.996174134255e-04
      1.357000000000e+03      5.386054629929e-03
      3.093000000000e+02      2.739102118906e-02
      8.773000000000e+01      1.031505919820e-01
      2.856000000000e+01      2.785706633174e-01
      1.021000000000e+01      4.482948494541e-01
      3.838000000000e+00      2.780859283953e-01
      7.466000000000e-01      1.543156123327e-02
 s           8
      9.046000000000e+03     -3.049900959534e-04
      1.357000000000e+03     -2.408026378508e-03
      3.093000000000e+02     -1.194444872518e-02
      8.773000000000e+01     -4.892599290902e-02
      2.856000000000e+01     -1.344727247250e-01
      1.021000000000e+01     -3.151125777001e-01
      3.838000000000e+00     -2.428578325496e-01
      7.466000000000e-01      1.094382206854e+00
 s           1
      2.248000000000e-01      1.000000000000e+00
 s           1
      6.124000000000e-02      1.000000000000e+00
 p           3
      1.355000000000e+01      5.890567677213e-02
      2.917000000000e+00      3.204611067143e-01
      7.973000000000e-01      7.530420617921e-01
 p           1
      2.185000000000e-01      1.000000000000e+00
 p           1
      5.611000000000e-02      1.000000000000e+00
 d           1
      8.170000000000e-01      1.000000000000e+00
 d           1
      2.300000000000e-01      1.000000000000e+00

5
 s           8
      4.570000000000e+03      6.955544180306e-04
      6.859000000000e+02      5.349572988100e-03
      1.565000000000e+02      2.711662870523e-02
      4.447000000000e+01      1.013150961206e-01
      1.448000000000e+01      2.718808293065e-01
      5.131000000000e+00      4.481159306152e-01
      1.898000000000e+00      2.899372621010e-01
      3.329000000000e-01      1.431283099861e-02
 s           8
      4.570000000000e+03     -2.812802240142e-04
      6.859000000000e+02     -2.219887811105e-03
      1.565000000000e+02     -1.101647150743e-02
      4.447000000000e+01     -4.434918985248e-02
      1.448000000000e+01     -1.209120479502e-01
      5.131000000000e+00     -2.807378995535e-01
      1.898000000000e+00     -2.660668087326e-01
      3.329000000000e-01      1.091784130514e+00
 s           1
      1.043000000000e-01      1.000000000000e+00
 s           1
      3.105000000000e-02      1.000000000000e+00
 p           3
      6.001000000000e+00      5.416586334015e-02
      1.241000000000e+00      3.023798901809e-01
      3.364000000000e-01      7.712922165481e-01
 p           1
      9.538000000000e-02      1.000000000000e+00
 p           1
      2.378000000000e-02      1.000000000000e+00
 d           1
      3.430000000000e-01      1.000000000000e+00
 d           1
      9.040000000000e-02      1.000000000000e+00

6
 s           8
      6.665000000000e+03      6.915839628130e-04
      1.000000000000e+03      5.325796152934e-03
      2.280000000000e+02      2.706072104203e-02
      6.471000000000e+01      1.016568461408e-01
      2.106000000000e+01      2.745748236174e-01
      7.495000000000e+00      4.482943189238e-01
      2.797000000000e+00      2.849026107152e-01
      5.215000000000e-01      1.519485920608e-02
 s           8
      6.665000000000e+03     -2.932696526865e-04
      1.000000000000e+03     -2.318035473975e-03
      2.280000000000e+02     -1.149978603857e-02
      6.471000000000e+01     -4.682672700979e-02
      2.106000000000e+01     -1.284661687505e-01
      7.495000000000e+00     -3.012662724629e-01
      2.797000000000e+00     -2.556307023301e-01
      5.215000000000e-01      1.093793361012e+00
 s           1
      1.596000000000e-01      1.000000000000e+00
 s           1
      4.690000000000e-02      1.000000000000e+00
 p           3
      9.439000000000e+00      5.697925159004e-02
      2.002000000000e+00      3.132072115007e-01
      5.456000000000e-01      7.603767417375e-01
 p           1
      1.517000000000e-01      1.000000000000e+00
 p           1
      4.041000000000e-02      1.000000000000e+00
 d           1
      5.500000000000e-01      1.000000000000e+00
 d           1
      1.510000000000e-01      1.000000000000e+00

7
 s           8
      6.665000000000e+03      6.915839628130e-04
      1.000000000000e+03      5.325796152934e-03
      2.280000000000e+02      2.706072104203e-02
      6.471000000000e+01      1.016568461408e-01
      2.106000000000e+01      2.745748236174e-01
      7.495000000000e+00      4.482943189238e-01
      2.797000000000e+00      2.849026107152e-01
      5.215000000000e-01      1.519485920608e-02
 s           8
      6.665000000000e+03     -2.932696526865e-04
      1.000000000000e+03     -2.318035473975e-03
      2.280000000000e+02     -1.149978603857e-02
      6.471000000000e+01     -4.682672700979e-02
      2.106000000000e+01     -1.284661687505e-01
      7.495000000000e+00     -3.012662724629e-01
      2.797000000000e+00     -2.556307023301e-01
      5.215000000000e-01      1.093793361012e+00
 s           1
      1.596000000000e-01      1.000000000000e+00
 s           1
      4.690000000000e-02      1.000000000000e+00
 p           3
      9.439000000000e+00      5.697925159004e-02
      2.002000000000e+00      3.132072115007e-01
      5.456000000000e-01      7.603767417375e-01
 p           1
      1.517000000000e-01      1.000000000000e+00
 p           1
      4.041000000000e-02      1.000000000000e+00
 d           1
      5.500000000000e-01      1.000000000000e+00
 d           1
      1.510000000000e-01      1.000000000000e+00

8
 s           8
      6.665000000000e+03      6.915839628130e-04
      1.000000000000e+03      5.325796152934e-03
      2.280000000000e+02      2.706072104203e-02
      6.471000000000e+01      1.016568461408e-01
      2.106000000000e+01      2.745748236174e-01
      7.495000000000e+00      4.482943189238e-01
      2.797000000000e+00      2.849026107152e-01
      5.215000000000e-01      1.519485920608e-02
 s           8
      6.665000000000e+03     -2.932696526865e-04
      1.000000000000e+03     -2.318035473975e-03
      2.280000000000e+02     -1.149978603857e-02
      6.471000000000e+01     -4.682672700979e-02
      2.106000000000e+01     -1.284661687505e-01
      7.495000000000e+00     -3.012662724629e-01
      2.797000000000e+00     -2.556307023301e-01
      5.215000000000e-01      1.093793361012e+00
 s           1
      1.596000000000e-01      1.000000000000e+00
 s           1
      4.690000000000e-02      1.000000000000e+00
 p           3
      9.439000000000e+00      5.697925159004e-02
      2.002000000000e+00      3.132072115007e-01
      5.456000000000e-01      7.603767417375e-01
 p           1
      1.517000000000e-01      1.000000000000e+00
 p           1
      4.041000000000e-02      1.000000000000e+00
 d           1
      5.500000000000e-01      1.000000000000e+00
 d           1
      1.510000000000e-01      1.000000000000e+00

9
 s           8
      6.665000000000e+03      6.915839628130e-04
      1.000000000000e+03      5.325796152934e-03
      2.280000000000e+02      2.706072104203e-02
      6.471000000000e+01      1.016568461408e-01
      2.106000000000e+01      2.745748236174e-01
      7.495000000000e+00      4.482943189238e-01
      2.797000000000e+00      2.849026107152e-01
      5.215000000000e-01      1.519485920608e-02
 s           8
      6.665000000000e+03     -2.932696526865e-04
      1.000000000000e+03     -2.318035473975e-03
      2.280000000000e+02     -1.149978603857e-02
      6.471000000000e+01     -4.682672700979e-02
      2.106000000000e+01     -1.284661687505e-01
      7.495000000000e+00     -3.012662724629e-01
      2.797000000000e+00     -2.556307023301e-01
      5.215000000000e-01      1.093793361012e+00
 s           1
      1.596000000000e-01      1.000000000000e+00
 s           1
      4.690000000000e-02      1.000000000000e+00
 p           3
      9.439000000000e+00      5.697925159004e-02
      2.002000000000e+00      3.132072115007e-01
      5.456000000000e-01      7.603767417375e-01
 p           1
      1.517000000000e-01      1.000000000000e+00
 p           1
      4.041000000000e-02      1.000000000000e+00
 d           1
      5.500000000000e-01      1.000000000000e+00
 d           1
      1.510000000000e-01      1.000000000000e+00

10
 s           8
      6.665000000000e+03      6.915839628130e-04
      1.000000000000e+03      5.325796152934e-03
      2.280000000000e+02      2.706072104203e-02
      6.471000000000e+01      1.016568461408e-01
      2.106000000000e+01      2.745748236174e-01
      7.495000000000e+00      4.482943189238e-01
      2.797000000000e+00      2.849026107152e-01
      5.215000000000e-01      1.519485920608e-02
 s           8
      6.665000000000e+03     -2.932696526865e-04
      1.000000000000e+03     -2.318035473975e-03
      2.280000000000e+02     -1.149978603857e-02
      6.471000000000e+01     -4.682672700979e-02
      2.106000000000e+01     -1.284661687505e-01
      7.495000000000e+00     -3.012662724629e-01
      2.797000000000e+00     -2.556307023301e-01
      5.215000000000e-01      1.093793361012e+00
 s           1
      1.596000000000e-01      1.000000000000e+00
 s           1
      4.690000000000e-02      1.000000000000e+00
 p           3
      9.439000000000e+00      5.697925159004e-02
      2.002000000000e+00      3.132072115007e-01
      5.456000000000e-01      7.603767417375e-01
 p           1
      1.517000000000e-01      1.000000000000e+00
 p           1
      4.041000000000e-02      1.000000000000e+00
 d           1
      5.500000000000e-01      1.000000000000e+00
 d           1
      1.510000000000e-01      1.000000000000e+00

11
 s           3
      1.301000000000e+01      3.349872639000e-02
      1.962000000000e+00      2.348008011741e-01
      4.446000000000e-01      8.136829578829e-01
 s           1
      1.220000000000e-01      1.000000000000e+00
 s           1
      2.974000000000e-02      1.000000000000e+00
 p           1
      7.270000000000e-01      1.000000000000e+00
 p           1
      1.410000000000e-01      1.000000000000e+00

12
 s           3
      1.301000000000e+01      3.349872639000e-02
      1.962000000000e+00      2.348008011741e-01
      4.446000000000e-01      8.136829578829e-01
 s           1
      1.220000000000e-01      1.000000000000e+00
 s           1
      2.974000000000e-02      1.000000000000e+00
 p           1
      7.270000000000e-01      1.000000000000e+00
 p           1
      1.410000000000e-01      1.000000000000e+00

13
 s           3
      1.301000000000e+01      3.349872639000e-02
      1.962000000000e+00      2.348008011741e-01
      4.446000000000e-01      8.136829578829e-01
 s           1
      1.220000000000e-01      1.000000000000e+00
 s           1
      2.974000000000e-02      1.000000000000e+00
 p           1
      7.270000000000e-01      1.000000000000e+00
 p           1
      1.410000000000e-01      1.000000000000e+00

14
 s           3
      1.301000000000e+01      3.349872639000e-02
      1.962000000000e+00      2.348008011741e-01
      4.446000000000e-01      8.136829578829e-01
 s           1
      1.220000000000e-01      1.000000000000e+00
 s           1
      2.974000000000e-02      1.000000000000e+00
 p           1
      7.270000000000e-01      1.000000000000e+00
 p           1
      1.410000000000e-01      1.000000000000e+00

15
 s           3
      1.301000000000e+01      3.349872639000e-02
      1.962000000000e+00      2.348008011741e-01
      4.446000000000e-01      8.136829578829e-01
 s           1
      1.220000000000e-01      1.000000000000e+00
 s           1
      2.974000000000e-02      1.000000000000e+00
 p           1
      7.270000000000e-01      1.000000000000e+00
 p           1
      1.410000000000e-01      1.000000000000e+00

16
 s           3
      1.301000000000e+01      3.349872639000e-02
      1.962000000000e+00      2.348008011741e-01
      4.446000000000e-01      8.136829578829e-01
 s           1
      1.220000000000e-01      1.000000000000e+00
 s           1
      2.974000000000e-02      1.000000000000e+00
 p           1
      7.270000000000e-01      1.000000000000e+00
 p           1
      1.410000000000e-01      1.000000000000e+00

17
 s           3
      1.301000000000e+01      3.349872639000e-02
      1.962000000000e+00      2.348008011741e-01
      4.446000000000e-01      8.136829578829e-01
 s           1
      1.220000000000e-01      1.000000000000e+00
 s           1
      2.974000000000e-02      1.000000000000e+00
 p           1
      7.270000000000e-01      1.000000000000e+00
 p           1
      1.410000000000e-01      1.000000000000e+00

18
 s           3
      1.301000000000e+01      3.349872639000e-02
      1.962000000000e+00      2.348008011741e-01
      4.446000000000e-01      8.136829578829e-01
 s           1
      1.220000000000e-01      1.000000000000e+00
 s           1
      2.974000000000e-02      1.000000000000e+00
 p           1
      7.270000000000e-01      1.000000000000e+00
 p           1
      1.410000000000e-01      1.000000000000e+00


[5D]
[7F]
[9G]
[MO]
 Ene=  -15.595425
 Spin=  Alpha
 Occup=    2.000000
   1    -0.0000501060252449
   2    -0.0000962385012448
   3     0.0028736569123542
   4     0.0083775506094482
   5     0.0000161680815961
   6    -0.0000110826787886
   7    -0.0000032577511323
   8    -0.0003894982202970
   9     0.0052794877665869
  10     0.0001565388856979
  11    -0.0036382136953275
  12    -0.0040910255000499
  13    -0.0013061971856701
  14     0.0000120858292034
  15    -0.0000151843742682
  16     0.0000103187350241
  17    -0.0000239041526294
  18     0.0000337975579332
  19    -0.0001298937037483
  20    -0.0000968910936919
  21    -0.0004151908375964
  22    -0.0001681511014009
  23    -0.0016597374769733
  24    -0.0000184091771230
  25    -0.0000534467012362
  26     0.0043324250024829
  27    -0.0103486417595147
  28     0.0001271830861138
  29    -0.0000310073783838
  30     0.0000132350730771
  31    -0.0019796912607644
  32     0.0066264572971518
  33    -0.0007334617362141
  34     0.0048349972357828
  35    -0.0019551045370364
  36     0.0015095109240009
  37    -0.0000233817267341
  38    -0.0000186881628573
  39     0.0000108750442978
  40    -0.0000880797924902
  41     0.0000290898707350
  42     0.0006031108427385
  43     0.0002182893199949
  44    -0.0006806607461012
  45     0.0016574963533817
  46    -0.0014576147282995
  47     0.0003359917412054
  48     0.0005078425659521
  49     0.0038183580658466
  50     0.0245403571679462
  51    -0.0002678670255688
  52    -0.0002234788926973
  53    -0.0001665338038164
  54    -0.0099040665243952
  55    -0.0053418490552302
  56    -0.0035002295310981
  57     0.0018035738183147
  58    -0.0044317801194281
  59     0.0006954137281399
  60    -0.0000398106342149
  61    -0.0000831122873046
  62    -0.0001412088382751
  63    -0.0001370170520756
  64    -0.0002946955802575
  65    -0.0010115874259850
  66     0.0001881913173243
  67     0.0015581353741787
  68    -0.0015822761029341
  69     0.0044509647248513
  70     1.0031691832601333
  71     0.0055942098764230
  72    -0.0265085062129567
  73    -0.0127023757862918
  74     0.0002699686709519
  75     0.0006125916164134
  76    -0.0004094334098875
  77     0.0004097165331687
  78    -0.0027579033185958
  79     0.0016527076980947
  80    -0.0030283941756287
  81    -0.0030692473132049
  82    -0.0010241460465749
  83    -0.0001596674138217
  84     0.0001494130684839
  85     0.0001372424451622
  86    -0.0000168753891725
  87     0.0002268003003030
  88     0.0003403415116741
  89    -0.0021223658930671
  90    -0.0010365801524437
  91    -0.0014494405355572
  92    -0.0016987241776102
  93     0.0001958490292669
  94     0.0003723355141872
  95    -0.0008913890139770
  96    -0.0040226605019249
  97    -0.0000767584529325
  98     0.0002764116935582
  99    -0.0001232329494623
 100     0.0014532752070972
 101    -0.0026057064767516
 102     0.0001363583007461
 103    -0.0004606246646926
 104    -0.0001966454899066
 105     0.0000013177108101
 106    -0.0000360226331177
 107     0.0000431289546930
 108    -0.0001080330404658
 109     0.0000483999109021
 110    -0.0001374188179455
 111     0.0003049537715042
 112     0.0008572008122935
 113    -0.0007757072727581
 114     0.0016825872584352
 115    -0.0014472007072811
 116     0.0000175983995060
 117     0.0000077407097367
 118     0.0010975562888169
 119    -0.0117152651307310
 120     0.0000240052037905
 121    -0.0000412286135365
 122    -0.0000015950118092
 123     0.0026031828295195
 124     0.0007734361636877
 125     0.0007175449342040
 126    -0.0026882233604932
 127    -0.0019322439457443
 128    -0.0010361422066152
 129     0.0000535453902921
 130    -0.0000292425560933
 131     0.0000093097847772
 132    -0.0000010821419575
 133     0.0000518077613913
 134    -0.0001368919856741
 135     0.0003727024175156
 136     0.0001882329710731
 137     0.0007382074583858
 138     0.0004492299481459
 139    -0.0000108282402335
 140    -0.0000034351889088
 141    -0.0034121647758335
 142     0.0063568697600483
 143    -0.0000425769805086
 144    -0.0000934536363801
 145     0.0000294785736275
 146    -0.0011307234418972
 147    -0.0023224021502405
 148    -0.0016482205526675
 149     0.0002015084514301
 150     0.0011844315166747
 151     0.0006364762777691
 152    -0.0000195290627760
 153     0.0000679971921886
 154     0.0000070005755367
 155     0.0000502174578638
 156     0.0000186930952700
 157     0.0003088337100079
 158     0.0000091814521141
 159    -0.0006145200357378
 160     0.0000934964211699
 161    -0.0007130332289947
 162     0.0001053452982831
 163     0.0001727777646515
 164    -0.0030292058909811
 165    -0.0029018962292096
 166     0.0000637135240188
 167    -0.0000351074986595
 168    -0.0000146653902932
 169    -0.0000650034163428
 170    -0.0022356436846039
 171     0.0004877622270309
 172    -0.0010525731265451
 173    -0.0005020207130944
 174     0.0000594250031182
 175     0.0000672082745593
 176    -0.0000100153126816
 177    -0.0000254738046633
 178    -0.0000008897923413
 179    -0.0000492757728581
 180    -0.0000045182691096
 181    -0.0001523299109748
 182     0.0002344855724169
 183     0.0006057879847590
 184     0.0001974351082598
 185     0.0000335963429110
 186     0.0000439434159912
 187     0.0042595351562451
 188     0.0011008572718526
 189    -0.0000031178686021
 190     0.0000086483337762
 191    -0.0000345075934309
 192    -0.0005691535120152
 193    -0.0023991197670364
 194    -0.0007500053909274
 195     0.0000609356346348
 196    -0.0001800509358711
 197     0.0000075358063468
 198     0.0000966460420908
 199    -0.0000346925270624
 200    -0.0000202950995024
 201    -0.0001559004061495
 202     0.0000654920804702
 203    -0.0002594704897000
 204    -0.0001002981751095
 205     0.0004830306370278
 206    -0.0010952643923693
 207     0.0005044094989773
 208    -0.0002040487850160
 209    -0.0003148329721355
 210     0.0097522950463130
 211    -0.0022795036242874
 212     0.0002870549139000
 213     0.0000741344078448
 214     0.0002832779987431
 215     0.0062982684860794
 216    -0.0039028896422009
 217     0.0077158430803957
 218    -0.0000385687168212
 219     0.0008418592123436
 220     0.0008777410164192
 221     0.0000320555479380
 222     0.0000242125298029
 223    -0.0000688881302178
 224     0.0001702574676496
 225     0.0000487442484370
 226     0.0011342886015656
 227     0.0034174051798351
 228    -0.0016952098782636
 229    -0.0007419973558487
 230    -0.0015816333124207
 231     0.0000090882669849
 232    -0.0004306459466324
 233     0.0006491931668104
 234    -0.0000212093651167
 235    -0.0000018325095468
 236    -0.0000047484872190
 237     0.0001371116419790
 238     0.0003018818517834
 239     0.0000795612416304
 240    -0.0000275155600182
 241    -0.0016929744353210
 242    -0.0005300971051258
 243     0.0000422871762829
 244     0.0000106124269846
 245     0.0000192934473748
 246     0.0006132222143788
 247     0.0005395626298986
 248     0.0003152802503494
 249    -0.0003076383449491
 250     0.0009514916029832
 251     0.0015123832147080
 252     0.0000429835895751
 253     0.0001918033703250
 254     0.0000275790541500
 255    -0.0012122513922067
 256    -0.0006416275573176
 257    -0.0004555189742839
 258     0.0000574889418300
 259     0.0007586883005877
 260    -0.0005761167237944
 261    -0.0000157894888863
 262     0.0000108123150734
 263     0.0000043223564070
 264    -0.0001890269537982
 265    -0.0000321898975908
 266     0.0000319838419542
 267     0.0000358648670057
 268    -0.0017827995845898
 269     0.0006018009061143
 270     0.0000389642208956
 271     0.0000276734220677
 272     0.0000235274140466
 273     0.0000655713611373
 274    -0.0002981445014701
 275    -0.0002800351948198
 276     0.0000049387230077
 277    -0.0012690940022468
 278    -0.0005485600390777
 279     0.0000307790129650
 280     0.0000150654552884
 281    -0.0000252317244179
 282    -0.0002267559658575
 283    -0.0002177102450428
 284     0.0001120574922852
 285    -0.0000262424430394
 286     0.0010177213243451
 287    -0.0001490230911274
 288    -0.0000127406320490
 289    -0.0000341070592224
 290    -0.0000279607967596
 291     0.0000892054554568
 292    -0.0004913229555671
 293    -0.0002178162940114
 294    -0.0001871160513451
 295     0.0032202021459908
 296     0.0004471592153943
 297    -0.0000059245151055
 298     0.0000443113309281
 299    -0.0001563834183079
 300     0.0007895148676738
 301    -0.0005476400598277
 302     0.0007254203768601
 Ene=  -11.286750
 Spin=  Alpha
 Occup=    2.000000
   1    -0.0000465017463055
   2    -0.0000713566232151
   3     0.0021339711734490
   4    -0.0018369522082513
   5     0.0000050379259068
   6     0.0000148541286567
   7    -0.0000093069226024
   8    -0.0018473960426651
   9     0.0010372069238197
  10    -0.0004846818693847
  11    -0.0006534633608757
  12    -0.0005165722172787
  13    -0.0003488035328654
  14    -0.0000386028361269
  15     0.0000190009689357
  16    -0.0000107800453433
  17     0.0000093626470782
  18     0.0000036544922965
  19     0.0001156876708495
  20     0.0001694497723903
  21    -0.0001138831745132
  22     0.0006586970118959
  23    -0.0002388345402397
  24     0.0007393623264276
  25     0.0000179801261408
  26     0.0013338609060225
  27    -0.0049725559899245
  28     0.0000252918269873
  29    -0.0000336258970933
  30     0.0000030636102905
  31    -0.0012695707579303
  32     0.0009694771884767
  33     0.0003081649056166
  34     0.0013227987431166
  35    -0.0021767018342900
  36     0.0004490270268860
  37     0.0000055524938918
  38    -0.0000117197053538
  39     0.0000128359173907
  40     0.0000370340914165
  41     0.0000464800906108
  42    -0.0000456888487454
  43    -0.0002106930953703
  44    -0.0003208425855495
  45     0.0006558959966109
  46    -0.0006400290713069
  47     0.0632909277339928
  48     0.0005391075874500
  49    -0.0024218966153792
  50     0.0042161423117091
  51    -0.0001493449869415
  52    -0.0000901047348509
  53    -0.0001251556249604
  54    -0.0022396941736496
  55     0.0010226304944380
  56    -0.0019484283527001
  57     0.0035325849568965
  58    -0.0010151671240875
  59     0.0015455765476172
  60     0.0000467414386419
  61     0.0001340604854710
  62     0.0000871842836931
  63     0.0001047311072158
  64    -0.0000510806613352
  65     0.0000861357538651
  66     0.0002368373875125
  67     0.0008683238252691
  68     0.0008891294033196
  69     0.0000283030520013
  70    -0.0000826568611159
  71    -0.0004404659782997
  72    -0.0011719172750828
  73    -0.0092383680738738
  74     0.0003761617174919
  75    -0.0000086133051661
  76     0.0002129417351198
  77    -0.0001027576148407
  78    -0.0003671179262656
  79    -0.0004855146539107
  80    -0.0001106761293489
  81     0.0025259926157882
  82    -0.0003379588732335
  83     0.0000195581675798
  84     0.0000903943434804
  85     0.0000158218900225
  86     0.0000226065914114
  87     0.0000702726000592
  88     0.0006810001599012
  89     0.0012485457784213
  90     0.0001819372533000
  91     0.0005738090105598
  92    -0.0005846386169760
  93     0.0003907412638560
  94     0.0006383139567638
  95    -0.0036976598004089
  96    -0.0006588817737988
  97    -0.0001027037186137