
Running Job 1 of 1 qchem.inp
qchem qchem.inp_2569232.0 /scratch/483088/qchem2569232/ 1
/local/qchem-6.3/exe/qcprog.exe_s qchem.inp_2569232.0 /scratch/483088/qchem2569232/
                  Welcome to Q-Chem
     A Quantum Leap Into The Future Of Chemistry


 Q-Chem 6.3, Q-Chem, Inc., Pleasanton, CA (2025)

 License issued to: MRG Dr. Merle Roehr, University of Wuerzburg

 E. Epifanovsky,  A. T. B. Gilbert,  Xintian Feng,  Joonho Lee,  Yuezhi Mao,  
 N. Mardirossian,  P. Pokhilko,  A. White,  M. Wormit,  M. P. Coons,  
 A. L. Dempwolff,  Zhengting Gan,  D. Hait,  P. R. Horn,  L. D. Jacobson,  
 I. Kaliman,  J. Kussmann,  A. W. Lange,  Ka Un Lao,  D. S. Levine,  Jie Liu,  
 S. C. McKenzie,  A. F. Morrison,  K. D. Nanda,  F. Plasser,  D. R. Rehn,  
 M. L. Vidal,  Zhi-Qiang You,  Ying Zhu,  Huseyin Aksu,  B. Alam,  
 B. Albrecht,  A. Aldossary,  E. Alguire,  J. H. Andersen,  
 J. E. Arias-Martinez,  V. Athavale,  F. Ballesteros,  D. Barton,  K. Begam,  
 A. Behn,  N. Bellonzi,  Y. A. Bernard,  E. J. Berquist,  H. Burton,  
 S. Camps,  A. Carreras,  K. Carter-Fenk,  Mathew Chow,  Romit Chakraborty,  
 Chandrima Chakravarty,  Junhan Chen,  A. D. Chien,  K. D. Closser,  
 V. Cofer-Shabica,  L. Cunha,  S. Dasgupta,  Jia Deng,  Joseph Dickinson,  
 M. de Wergifosse,  M. Diedenhofen,  L. B. Dittmer,  Hainam Do,  Wenjie Dou,  
 S. Ehlert,  Po-Tung Fang,  S. Fatehi,  Qingguo Feng,  Jonathan Fetherolf,  
 T. Friedhoff,  Thomas Froitzheim,  Sarai Folkestad,  B. Ganoe,  J. Gayvert,  
 Qinghui Ge,  G. Gidofalvi,  M. Gimferrer,  G. Giudetti,  M. Goldey,  
 Montgomery Gray,  J. Gomes,  C. Gonzalez-Espinoza,  S. Gulania,  A. Gunina,  
 J. A. Gyamfi,  M. W. D. Hanson-Heine,  P. H. P. Harbach,  A. W. Hauser,  
 M. F. Herbst,  M. Hernandez Vera,  M. Hodecker,  Z. C. Holden,  S. Houck,  
 Xunkun Huang,  Kerwin Hui,  B. C. Huynh,  K. Ikeda,  M. Ivanov,  
 Nayanthara K. Jayadev,  Hyunjun Ji,  Zuxin Jin,  Hanjie Jiang,  
 Subrata Jana,  B. Kaduk,  S. Kaehler,  R. Kang,  Richard Kang,  
 K. Khistyaev,  Jaehoon Kim,  Yongbin Kim,  P. Klunzinger,  Z. Koczor-Benda,  
 Joong Hoon Koh,  D. Kosenkov,  Saikiran Kotaru,  L. Koulias,  T. Kowalczyk,  
 C. M. Krauter,  K. Kue,  A. Kunitsa,  T. Kus,  A. Landau,  C. W. Lander,  
 K. V. Lawler,  D. Lefrancois,  S. Lehtola,  Rain Li,  Shaozhi Li,  
 Tao E. Li,  Yi-Pei Li,  Jiashu Liang,  M. Liebenthal,  Hung-Hsuan Lin,  
 You-Sheng Lin,  Fenglai Liu,  Kuan-Yu Liu,  Xiao Liu,  M. Loipersberger,  
 A. Luenser,  C. Malbon,  Aniket Mandal,  Manisha,  A. Manjanath,  
 P. Manohar,  E. Mansoor,  S. F. Manzer,  Shan-Ping Mao,  A. V. Marenich,  
 T. Markovich,  S. Mason,  F. Matz,  S. A. Maurer,  Samuel May,  
 Alexandra McIsaac,  P. F. McLaughlin,  M. F. S. J. Menger,  J.-M. Mewes,  
 S. A. Mewes,  R. E. Moorby,  P. Morgante,  Mohammad Mostafanejad,  
 Madhubani Mukherjee,  J. W. Mullinax,  Quyen Nguyen,  Avik Kumar Ojha,  
 K. J. Oosterbaan,  Eno Paenurk,  Xiaoliang Pan,  G. Paran,  V. Parravicini,  
 R. L. Patterson,  Alexander C. Paul,  Suranjan K. Paul,  F. Pavosevic,  
 Zheng Pei,  P. Pokhilko,  S. Prager,  E. I. Proynov,  E. Ramos,  B. Rana,  
 A. E. Rask,  A. Rettig,  R. M. Richard,  F. Rob,  E. Rossomme,  S. Roy,  
 T. Scheele,  M. Scheurer,  M. Schneider,  P. E. Schneider,  Tim K. Schramm,  
 N. Sergueev,  S. M. Sharada,  Hengyuan Shen,  W. Skomorowski,  D. W. Small,  
 C. J. Stein,  Alistair J. Sterling,  Yingli Su,  Yu-Chuan Su,  
 E. J. Sundstrom,  J. Talbot,  J. A. Tan,  Zhen Tao,  Hung-Hsuan Teh,  
 J. Thirman,  C. Titeca,  N. Tkachenko,  Hung-Yi Tsai,  T. Tsuchimochi,  
 N. M. Tubman,  C. Utku,  S. P. Veccham,  O. Vydrov,  Z. Wang,  Rahel Weiss,  
 J. Wenzel,  Jonathan Wong,  J. Witte,  H. Wu,  Yanze Wu,  A. Yamada,  
 Chou-Hsun Yang,  Kun Yao,  S. Yeganeh,  S. R. Yost,  Qi Yu,  A. Zech,  
 F. Zeller,  Chongxiao Zhao,  T. Zhao,  Igor Ying Zhang,  Xing Zhang,  
 Yu Zhang,  D. Zuev,  A. Aspuru-Guzik,  A. T. Bell,  N. A. Besley,  
 K. B. Bravaya,  B. R. Brooks,  D. Casanova,  Jeng-Da Chai,  Hsing-Ta Chen,  
 S. Coriani,  C. J. Cramer,  A. E. DePrince, III,  R. A. DiStasio Jr.,  
 A. Dreuw,  B. D. Dunietz,  T. R. Furlani,  W. A. Goddard III,  S. Grimme,  
 S. Hammes-Schiffer,  T. Head-Gordon,  W. J. Hehre,  Chao-Ping Hsu,  
 T.-C. Jagau,  Yousung Jung,  A. Klamt,  Jing Kong,  D. S. Lambrecht,  
 Xiangyuan Li,  WanZhen Liang,  N. J. Mayhall,  C. W. McCurdy,  J. B. Neaton,  
 T. Neudecker,  C. Ochsenfeld,  J. A. Parkhill,  R. Peverati,  
 V. A. Rassolov,  Haisheng Ren,  Yihan Shao,  L. V. Slipchenko,  
 R. P. Steele,  J. E. Subotnik,  A. J. W. Thom,  A. Tkatchenko,  
 D. G. Truhlar,  T. Van Voorhis,  Fan Wang,  T. A. Wesolowski,  K. B. Whaley,  
 H. L. Woodcock III,  P. M. Zimmerman,  S. Faraji,  P. M. W. Gill,  
 M. Head-Gordon,  J. M. Herbert,  A. I. Krylov

 Contributors to earlier versions of Q-Chem not listed above: 
 R. D. Adamson,  B. Austin,  R. Baer,  J. Baker,  G. J. O. Beran,  
 K. Brandhorst,  S. T. Brown,  E. F. C. Byrd,  Arup K. Chakraborty,  
 G. K. L. Chan,  Chun-Min Chang,  Yunqing Chen,  C.-L. Cheng,  
 Siu Hung Chien,  D. M. Chipman,  D. L. Crittenden,  H. Dachsel,  
 R. J. Doerksen,  A. D. Dutoi,  R. G. Edgar,  J. Fosso-Tande,  
 L. Fusti-Molnar,  D. Ghosh,  A. Ghysels,  A. Golubeva-Zadorozhnaya,  
 J. Gonthier,  M. S. Gordon,  S. R. Gwaltney,  G. Hawkins,  J. E. Herr,  
 A. Heyden,  S. Hirata,  E. G. Hohenstein,  G. Kedziora,  F. J. Keil,  
 C. Kelley,  Jihan Kim,  R. A. King,  R. Z. Khaliullin,  P. P. Korambath,  
 W. Kurlancheek,  A. Laurent,  A. M. Lee,  M. S. Lee,  S. V. Levchenko,  
 Ching Yeh Lin,  D. Liotard,  E. Livshits,  R. C. Lochan,  I. Lotan,  
 L. A. Martinez-Martinez,  P. E. Maslen,  N. Nair,  D. P. O'Neill,  
 D. Neuhauser,  E. Neuscamman,  C. M. Oana,  R. Olivares-Amaya,  R. Olson,  
 T. M. Perrine,  B. Peters,  P. A. Pieniazek,  A. Prociuk,  Y. M. Rhee,  
 J. Ritchie,  M. A. Rohrdanz,  E. Rosta,  N. J. Russ,  H. F. Schaefer III,  
 M. W. Schmidt,  N. E. Schultz,  S. Sharma,  N. Shenvi,  C. D. Sherrill,  
 A. C. Simmonett,  A. Sodt,  T. Stein,  D. Stuck,  K. S. Thanthiriwatte,  
 V. Vanovschi,  L. Vogt,  Tao Wang,  A. Warshel,  M. A. Watson,  
 C. F. Williams,  Q. Wu,  X. Xu,  Jun Yang,  W. Zhang,  Yan Zhao

   Please cite Q-Chem as follows:
  "Software for the frontiers of quantum chemistry:
   An overview of developments in the Q-Chem 5 package"
   J. Chem. Phys. 155, 084801 (2021)
   https://doi.org/10.1063/5.0055522 (open access)

 Q-Chem 6.3.1 for Intel X86 EM64T Linux

 Parts of Q-Chem use Armadillo 12.8.2 (Cortisol Injector).
 http://arma.sourceforge.net/

 Q-Chem begins on Wed Jun 17 18:24:06 2026  

 Host: 
0

 Scratch files written to /scratch/483088/qchem2569232//
 Executable: /local/qchem-6.3/exe/qcprog.exe_s
 Number of threads = 8
 Sep2225 |scratch|qcdevops|jenkins|workspace|build_RNUM -1
 Processing $rem in /local/qchem-6.3/config/preferences:
 Processing $rem in /home/buehlerm/.qchemrc:

 Checking the input file for inconsistencies... 	...done.

--------------------------------------------------------------
User input:
--------------------------------------------------------------
$molecule
0 1
C 2.425531 -0.501741 -0.077669
C 2.308350 0.923150 -0.043179
C 1.075026 1.526869 -0.000000
N -0.000000 0.714568 -0.000000
B 0.000000 -0.714568 0.000000
C 1.353039 -1.374555 -0.060580
C -1.618381 -0.731778 0.102354
C -2.193631 -0.518166 1.494843
C -2.039173 0.814661 1.498928
C -1.466754 0.840327 0.091589
H 3.443158 -0.902514 -0.116603
H 3.205089 1.540606 -0.055248
H 0.933470 2.608378 0.021388
H 1.561986 -2.444985 -0.089306
H -2.244958 -1.226873 -0.647449
H -2.550756 -1.224736 2.244902
H -2.183064 1.593281 2.246757
H -1.929302 1.466036 -0.680122
$end

$rem
METHOD     wB97xD
BASIS      aug-cc-pvdz
NBO        1        ! NBO5 Aufruf
MAKE_CUBE_FILES TRUE
PLOTS TRUE
$end

$nbo
PLOT
$end

$plots
grid_range (-6,6) (-6,6) (-4,4)
grid_spacing 0.12
nbo_state 0
natural_bond_orbital 11
$end

--------------------------------------------------------------
 ----------------------------------------------------------------
             Standard Nuclear Orientation (Angstroms)
    I     Atom           X                Y                Z
 ----------------------------------------------------------------
    1      C       2.4528870639    -0.6301627389     0.2552553877
    2      C       2.3351036379     0.7946150480     0.2182333499
    3      C       1.1321639820     1.3940186207    -0.0665133575
    4      N       0.0890166298     0.5774395863    -0.3125948429
    5      B       0.0847024259    -0.8510974753    -0.2714492735
    6      C       1.4077262356    -1.5067293062     0.0280873911
    7      C      -1.5077059468    -0.8723228865    -0.5775777481
    8      C      -2.4130104743    -0.6214078879     0.6195160829
    9      C      -2.2604856243     0.7116410537     0.6238128706
   10      C      -1.3534767631     0.6994664908    -0.5952490727
   11      H       3.4465664729    -1.0275105041     0.4841998146
   12      H       3.2080948316     1.4153192856     0.4135562416
   13      H       0.9930317997     2.4750785163    -0.1124372367
   14      H       1.6139702357    -2.5766353944     0.0834840660
   15      H      -1.9278068643    -1.3913674587    -1.4459269209
   16      H      -2.9488888928    -1.3077435016     1.2761329270
   17      H      -2.5848972016     1.5107252531     1.2889621083
   18      H      -1.6059115842     1.3008337135    -1.4759501554
 ----------------------------------------------------------------
 Molecular Point Group                 C1    NOp =  1
 Largest Abelian Subgroup              C1    NOp =  1
 Nuclear Repulsion Energy =         460.67010082 hartrees
 There are       34 alpha and       34 beta electrons
 Requested basis set is aug-cc-pVDZ
 There are 130 shells and 302 basis functions

 Total QAlloc Memory Limit   7000 MB
 Mega-Array Size       188 MB
 MEM_STATIC part       192 MB

 A cutoff of  1.0D-09 yielded   8154 shell pairs
 There are     44306 function pairs (     50465 Cartesian)
 Smallest overlap matrix eigenvalue = 5.83E-06

 Q-Chem warning in module stvman/mkSTV.C, line 305:

 Overlap eigenvalue is smaller than square root of threshold
 Use THRESH >= 12 to get rid of this warning


 Scale SEOQF with 1.000000e-01/1.000000e-01/1.000000e-01

 Standard Electronic Orientation quadrupole field applied
 Nucleus-field energy     =     0.0000000114 hartrees
 Guess from superposition of atomic densities
 Warning:  Energy on first SCF cycle will be non-variational
 SAD guess density has 68.000000 electrons

 -----------------------------------------------------------------------
  General SCF calculation program by
  Eric Jon Sundstrom, Paul Horn, Yuezhi Mao, Dmitri Zuev, Alec White,
  David Stuck, Shaama M.S., Shane Yost, Joonho Lee, David Small,
  Daniel Levine, Susi Lehtola, Hugh Burton, Evgeny Epifanovsky,
  Bang C. Huynh
 -----------------------------------------------------------------------
 Exchange:     0.2220 Hartree-Fock + 1.0000 wB97X-D + LR-HF
 Correlation:  1.0000 wB97X-D
 Using SG-2 standard quadrature grid
 Dispersion:   Grimme D
 using 8 threads for integral computing
 -------------------------------------------------------
 OpenMP Integral computing Module                
 Release: version 1.0, May 2013, Q-Chem Inc. Pittsburgh 
 -------------------------------------------------------
 A restricted SCF calculation will be
 performed using DIIS
 SCF converges when DIIS error is below 1.0e-05
 User-specified cutoff of 10e-9
 used for neglect of 2-electron integrals.
 A cutoff of 10e-9
 used for neglect of overlap integrals.
 Incremental Fock algorithm is on at the start.
 ---------------------------------------
  Cycle       Energy         DIIS error
 ---------------------------------------
    1    -392.5054080536      3.63e-02  
    2    -389.0172823025      2.78e-03  
    3    -389.0606787974      2.24e-03  
    4    -389.1178519032      2.98e-04  
    5    -389.1187460592      1.78e-04  
    6    -389.1191333644      3.12e-05  
    7    -389.1191473079      1.37e-05  
    8    -389.1191503064      4.60e-06  Convergence criterion met
 ---------------------------------------
 SCF time:   CPU 513.03s  wall 66.00s 
 SCF   energy =  -389.11915031
 Total energy =  -389.11915031
 Integrated density by DFT XC:
   Number of electrons = 68
   Numerical integral  =    67.998770539410
   Relative error      =     0.0018080303 %
 
 --------------------------------------------------------------
 
                    Orbital Energies (a.u.)
 --------------------------------------------------------------
 
 Alpha MOs
 -- Occupied --
-14.4710 -10.3472 -10.3427 -10.3118 -10.3091 -10.3016 -10.2942 -10.2885
-10.2706  -6.8307  -1.0665  -0.9635  -0.8894  -0.8297  -0.7619  -0.7438
 -0.6911  -0.6580  -0.6227  -0.6040  -0.5924  -0.5484  -0.5218  -0.5116
 -0.4897  -0.4750  -0.4549  -0.4299  -0.4199  -0.4070  -0.3746  -0.3533
 -0.3286  -0.2967
 -- Virtual --
  0.0307   0.0349   0.0417   0.0443   0.0490   0.0569   0.0579   0.0611
  0.0643   0.0742   0.0784   0.0827   0.0880   0.0965   0.1137   0.1188
  0.1254   0.1284   0.1317   0.1394   0.1430   0.1454   0.1472   0.1503
  0.1565   0.1568   0.1623   0.1660   0.1753   0.1770   0.1787   0.1821
  0.1888   0.1907   0.2004   0.2023   0.2054   0.2079   0.2166   0.2192
  0.2270   0.2334   0.2445   0.2559   0.2610   0.2753   0.2794   0.2868
  0.2897   0.2961   0.3031   0.3063   0.3119   0.3127   0.3187   0.3242
  0.3329   0.3416   0.3449   0.3561   0.3610   0.3632   0.3706   0.3735
  0.3810   0.3891   0.3959   0.4047   0.4054   0.4154   0.4313   0.4321
  0.4346   0.4447   0.4572   0.4688   0.4772   0.4838   0.4859   0.4892
  0.4976   0.5087   0.5105   0.5162   0.5314   0.5333   0.5410   0.5440
  0.5499   0.5561   0.5584   0.5721   0.5774   0.5801   0.5845   0.5916
  0.6030   0.6086   0.6175   0.6194   0.6348   0.6385   0.6479   0.6532
  0.6560   0.6642   0.6715   0.6797   0.6842   0.6908   0.6931   0.7004
  0.7091   0.7149   0.7189   0.7247   0.7317   0.7447   0.7543   0.7583
  0.7639   0.7756   0.7782   0.7833   0.7912   0.8040   0.8069   0.8197
  0.8261   0.8304   0.8389   0.8495   0.8638   0.8675   0.8865   0.8939
  0.9016   0.9055   0.9104   0.9360   0.9448   0.9535   0.9662   0.9874
  0.9988   1.0060   1.0122   1.0159   1.0385   1.0493   1.0639   1.0712
  1.0865   1.1080   1.1446   1.1450   1.1551   1.1677   1.1774   1.1809
  1.2305   1.2570   1.2921   1.3023   1.3149   1.3593   1.3743   1.3868
  1.4000   1.4017   1.4157   1.4289   1.4413   1.4465   1.4559   1.4783
  1.4912   1.5003   1.5028   1.5123   1.5227   1.5395   1.5544   1.5623
  1.5778   1.5811   1.6012   1.6130   1.6272   1.6437   1.6569   1.6704
  1.6828   1.6954   1.7094   1.7322   1.7455   1.7536   1.7674   1.7715
  1.8001   1.8209   1.8344   1.8434   1.8649   1.8792   1.8861   1.9020
  1.9207   1.9240   1.9473   1.9817   1.9882   2.0035   2.0155   2.0214
  2.0373   2.0407   2.0497   2.0724   2.1092   2.1159   2.1300   2.1400
  2.1565   2.1666   2.1863   2.1914   2.2235   2.2397   2.2661   2.2939
  2.3055   2.3248   2.3498   2.3674   2.4004   2.4225   2.4348   2.4523
  2.4672   2.4842   2.5219   2.5875   2.5920   2.5952   2.6346   2.6720
  2.6780   2.7014   2.7228   2.7298   2.7740   2.8275   2.8692   2.8827
  2.9194   2.9794   3.0407   3.0547   3.2424   3.2691   3.3132   3.4563
  3.6577   3.9493   4.2668   4.8211
 --------------------------------------------------------------
 
          Ground-State Mulliken Net Atomic Charges

     Atom                 Charge (a.u.)
  ----------------------------------------
      1 C                     0.530842
      2 C                     0.937948
      3 C                     0.402002
      4 N                     0.038044
      5 B                     0.054068
      6 C                     0.425149
      7 C                     0.455291
      8 C                     0.504768
      9 C                     0.369520
     10 C                     0.883476
     11 H                    -0.633360
     12 H                    -0.619038
     13 H                    -0.632096
     14 H                    -0.751308
     15 H                    -0.653166
     16 H                    -0.404300
     17 H                    -0.393024
     18 H                    -0.514815
  ----------------------------------------
  Sum of atomic charges =     0.000000

 -----------------------------------------------------------------
                    Cartesian Multipole Moments
 -----------------------------------------------------------------
    Charge (ESU x 10^10)
                 0.0000
    Dipole Moment (Debye)
         X      -0.4421      Y       1.1891      Z      -0.0613
       Tot       1.2701
    Quadrupole Moments (Debye-Ang)
        XX     -56.1508     XY       0.7732     YY     -53.6269
        XZ       0.5928     YZ      -0.5924     ZZ     -59.8386
    Octopole Moments (Debye-Ang^2)
       XXX      15.7340    XXY      -1.0411    XYY      -0.4161
       YYY      11.0497    XXZ       8.7360    XYZ       0.2373
       YYZ       1.2066    XZZ      -9.7353    YZZ       2.2482
       ZZZ      -3.0611
    Hexadecapole Moments (Debye-Ang^3)
      XXXX   -1192.1638   XXXY      11.3548   XXYY    -251.2676
      XYYY       1.8100   YYYY    -402.1006   XXXZ       4.8286
      XXYZ      -2.7048   XYYZ      -1.6951   YYYZ      -3.0623
      XXZZ    -227.8531   XYZZ       0.5044   YYZZ     -98.2106
      XZZZ      -0.1858   YZZZ      -2.0903   ZZZZ    -161.0811
 -----------------------------------------------------------------

 Begin NBO analysis for the ground state 

 This is the NBO5 program in Q-Chem
 (Use NBO_EXTERNAL to run external NBO6 or NBO7)

 *********************************** NBO 5.0 ***********************************
             N A T U R A L   A T O M I C   O R B I T A L   A N D
          N A T U R A L   B O N D   O R B I T A L   A N A L Y S I S
 *******************************************************************************
  (c) Copyright 1996-2002 Board of Regents of the University of Wisconsin System
      on behalf of the Theoretical Chemistry Institute.  All Rights Reserved.

          Cite this program as:

          NBO 5.0.  E. D. Glendening, J. K. Badenhoop, A. E. Reed,
          J. E. Carpenter, J. A. Bohmann, C. M. Morales, and F. Weinhold
          (Theoretical Chemistry Institute, University of Wisconsin,
          Madison, WI, 2001); http://www.chem.wisc.edu/~nbo5

       /PLOT   / : Write information for the orbital plotter
  This is a closed-shell NBO calculation

 Job title: Starting NBO analysis.                                          

 Storage needed:      457312 in NPA,      366069 in NBO,
                      366650 in NLMO (    23999918 available)


 NATURAL POPULATIONS:  Natural atomic orbital occupancies 
                                                          
  NAO Atom No lang   Type(AO)    Occupancy      Energy    
 ---------------------------------------------------------
   1    C  1  s      Cor( 1s)     1.99904     -10.16586
   2    C  1  s      Val( 2s)     0.96755      -0.16777
   3    C  1  s      Ryd( 4s)     0.00110       1.65764
   4    C  1  s      Ryd( 3s)     0.00008       0.74265
   5    C  1  px     Val( 2p)     1.16350      -0.06182
   6    C  1  px     Ryd( 4p)     0.00616       1.06317
   7    C  1  px     Ryd( 3p)     0.00006       0.52569
   8    C  1  py     Val( 2p)     1.06876      -0.03253
   9    C  1  py     Ryd( 4p)     0.00452       0.97032
  10    C  1  py     Ryd( 3p)     0.00014       0.39848
  11    C  1  pz     Val( 2p)     0.94916      -0.09377
  12    C  1  pz     Ryd( 4p)     0.00070       0.76146
  13    C  1  pz     Ryd( 3p)     0.00007       0.32571
  14    C  1  dxy    Ryd( 4d)     0.00077       2.17597
  15    C  1  dxy    Ryd( 3d)     0.00046       1.49503
  16    C  1  dxz    Ryd( 4d)     0.00062       1.59187
  17    C  1  dxz    Ryd( 3d)     0.00015       1.13289
  18    C  1  dyz    Ryd( 4d)     0.00059       1.57612
  19    C  1  dyz    Ryd( 3d)     0.00017       1.02250
  20    C  1  dx2y2  Ryd( 4d)     0.00094       2.17862
  21    C  1  dx2y2  Ryd( 3d)     0.00060       1.44329
  22    C  1  dz2    Ryd( 4d)     0.00123       1.87958
  23    C  1  dz2    Ryd( 3d)     0.00061       1.07853
 
  24    C  2  s      Cor( 1s)     1.99901     -10.15300
  25    C  2  s      Val( 2s)     0.96676      -0.16392
  26    C  2  s      Ryd( 4s)     0.00128       1.58337
  27    C  2  s      Ryd( 3s)     0.00007       0.80236
  28    C  2  px     Val( 2p)     1.14500      -0.06077
  29    C  2  px     Ryd( 4p)     0.00439       1.08792
  30    C  2  px     Ryd( 3p)     0.00011       0.43867
  31    C  2  py     Val( 2p)     1.10320      -0.04768
  32    C  2  py     Ryd( 4p)     0.00424       1.03536
  33    C  2  py     Ryd( 3p)     0.00009       0.43161
  34    C  2  pz     Val( 2p)     1.09910      -0.11098
  35    C  2  pz     Ryd( 4p)     0.00202       0.76234
  36    C  2  pz     Ryd( 3p)     0.00014       0.32162
  37    C  2  dxy    Ryd( 4d)     0.00044       2.19301
  38    C  2  dxy    Ryd( 3d)     0.00068       1.51309
  39    C  2  dxz    Ryd( 4d)     0.00064       1.44517
  40    C  2  dxz    Ryd( 3d)     0.00019       1.27250
  41    C  2  dyz    Ryd( 4d)     0.00028       1.40738
  42    C  2  dyz    Ryd( 3d)     0.00021       1.21906
  43    C  2  dx2y2  Ryd( 4d)     0.00124       2.03681
  44    C  2  dx2y2  Ryd( 3d)     0.00036       1.55041
  45    C  2  dz2    Ryd( 4d)     0.00151       1.73916
  46    C  2  dz2    Ryd( 3d)     0.00032       1.20546
 
  47    C  3  s      Cor( 1s)     1.99896     -10.20084
  48    C  3  s      Val( 2s)     0.91769      -0.14926
  49    C  3  s      Ryd( 4s)     0.00164       1.44395
  50    C  3  s      Ryd( 3s)     0.00006       0.73994
  51    C  3  px     Val( 2p)     0.93506      -0.01783
  52    C  3  px     Ryd( 4p)     0.00486       0.83401
  53    C  3  px     Ryd( 3p)     0.00011       0.45704
  54    C  3  py     Val( 2p)     1.10819      -0.05156
  55    C  3  py     Ryd( 4p)     0.00528       1.05951
  56    C  3  py     Ryd( 3p)     0.00009       0.48610
  57    C  3  pz     Val( 2p)     0.94576      -0.10810
  58    C  3  pz     Ryd( 4p)     0.00226       0.73321
  59    C  3  pz     Ryd( 3p)     0.00024       0.33850
  60    C  3  dxy    Ryd( 4d)     0.00147       2.14128
  61    C  3  dxy    Ryd( 3d)     0.00059       1.49359
  62    C  3  dxz    Ryd( 4d)     0.00124       1.85648
  63    C  3  dxz    Ryd( 3d)     0.00035       0.87226
  64    C  3  dyz    Ryd( 4d)     0.00062       1.77526
  65    C  3  dyz    Ryd( 3d)     0.00014       0.90857
  66    C  3  dx2y2  Ryd( 4d)     0.00113       2.25815
  67    C  3  dx2y2  Ryd( 3d)     0.00060       1.54181
  68    C  3  dz2    Ryd( 4d)     0.00080       1.97283
  69    C  3  dz2    Ryd( 3d)     0.00064       0.98483
 
  70    N  4  s      Cor( 1s)     1.99917     -14.28397
  71    N  4  s      Val( 2s)     1.26635      -0.57310
  72    N  4  s      Ryd( 4s)     0.00176       2.28179
  73    N  4  s      Ryd( 3s)     0.00016       1.01737
  74    N  4  px     Val( 2p)     1.33351      -0.27764
  75    N  4  px     Ryd( 4p)     0.00210       1.68317
  76    N  4  px     Ryd( 3p)     0.00048       0.82024
  77    N  4  py     Val( 2p)     1.54908      -0.35092
  78    N  4  py     Ryd( 4p)     0.00257       1.49142
  79    N  4  py     Ryd( 3p)     0.00037       0.66111
  80    N  4  pz     Val( 2p)     1.51454      -0.28571
  81    N  4  pz     Ryd( 4p)     0.00274       1.16590
  82    N  4  pz     Ryd( 3p)     0.00026       0.50578
  83    N  4  dxy    Ryd( 3d)     0.00084       2.03575
  84    N  4  dxy    Ryd( 4d)     0.00048       2.69151
  85    N  4  dxz    Ryd( 3d)     0.00062       1.58640
  86    N  4  dxz    Ryd( 4d)     0.00044       2.41775
  87    N  4  dyz    Ryd( 3d)     0.00065       1.44399
  88    N  4  dyz    Ryd( 4d)     0.00012       2.18458
  89    N  4  dx2y2  Ryd( 3d)     0.00085       2.31166
  90    N  4  dx2y2  Ryd( 4d)     0.00058       2.83498
  91    N  4  dz2    Ryd( 3d)     0.00217       1.77327
  92    N  4  dz2    Ryd( 4d)     0.00028       2.35118
 
  93    B  5  s      Cor( 1s)     1.99893      -6.73054
  94    B  5  s      Val( 2s)     0.56686       0.12235
  95    B  5  s      Ryd( 4s)     0.00140       0.96547
  96    B  5  s      Ryd( 3s)     0.00011       0.50635
  97    B  5  px     Val( 2p)     0.64234       0.25463
  98    B  5  px     Ryd( 4p)     0.00283       0.64696
  99    B  5  px     Ryd( 3p)     0.00010       0.40404
 100    B  5  py     Val( 2p)     0.46896       0.21943
 101    B  5  py     Ryd( 4p)     0.00370       0.55269
 102    B  5  py     Ryd( 3p)     0.00010       0.43855
 103    B  5  pz     Val( 2p)     0.43743       0.08046
 104    B  5  pz     Ryd( 4p)     0.00125       0.49145
 105    B  5  pz     Ryd( 3p)     0.00009       0.25288
 106    B  5  dxy    Ryd( 3d)     0.00126       0.80920
 107    B  5  dxy    Ryd( 4d)     0.00071       2.02437
 108    B  5  dxz    Ryd( 3d)     0.00116       0.70007
 109    B  5  dxz    Ryd( 4d)     0.00068       1.63233
 110    B  5  dyz    Ryd( 3d)     0.00069       0.55941
 111    B  5  dyz    Ryd( 4d)     0.00070       1.44960
 112    B  5  dx2y2  Ryd( 3d)     0.00173       0.75097
 113    B  5  dx2y2  Ryd( 4d)     0.00153       2.02820
 114    B  5  dz2    Ryd( 3d)     0.00108       0.51774
 115    B  5  dz2    Ryd( 4d)     0.00078       1.54474
 
 116    C  6  s      Cor( 1s)     1.99886     -10.12262
 117    C  6  s      Val( 2s)     1.06816      -0.21590
 118    C  6  s      Ryd( 4s)     0.00226       1.62354
 119    C  6  s      Ryd( 3s)     0.00005       0.74649
 120    C  6  px     Val( 2p)     1.25112      -0.10328
 121    C  6  px     Ryd( 4p)     0.00389       1.07484
 122    C  6  px     Ryd( 3p)     0.00016       0.54682
 123    C  6  py     Val( 2p)     1.22218      -0.06595
 124    C  6  py     Ryd( 4p)     0.00488       1.15140
 125    C  6  py     Ryd( 3p)     0.00008       0.52622
 126    C  6  pz     Val( 2p)     1.04985      -0.09739
 127    C  6  pz     Ryd( 4p)     0.00071       0.86907
 128    C  6  pz     Ryd( 3p)     0.00017       0.36486
 129    C  6  dxy    Ryd( 3d)     0.00178       1.90808
 130    C  6  dxy    Ryd( 4d)     0.00038       1.91966
 131    C  6  dxz    Ryd( 3d)     0.00045       1.06812
 132    C  6  dxz    Ryd( 4d)     0.00025       1.58689
 133    C  6  dyz    Ryd( 3d)     0.00065       1.01519
 134    C  6  dyz    Ryd( 4d)     0.00014       1.63627
 135    C  6  dx2y2  Ryd( 4d)     0.00038       1.85639
 136    C  6  dx2y2  Ryd( 3d)     0.00101       1.72710
 137    C  6  dz2    Ryd( 3d)     0.00218       1.32035
 138    C  6  dz2    Ryd( 4d)     0.00042       1.61857
 
 139    C  7  s      Cor( 1s)     1.99901     -10.15099
 140    C  7  s      Val( 2s)     1.06620      -0.25611
 141    C  7  s      Ryd( 4s)     0.00138       1.92629
 142    C  7  s      Ryd( 3s)     0.00014       0.95368
 143    C  7  px     Val( 2p)     1.27739      -0.13558
 144    C  7  px     Ryd( 4p)     0.00366       1.12975
 145    C  7  px     Ryd( 3p)     0.00014       0.42291
 146    C  7  py     Val( 2p)     1.04458      -0.08234
 147    C  7  py     Ryd( 4p)     0.00504       1.08098
 148    C  7  py     Ryd( 3p)     0.00015       0.56331
 149    C  7  pz     Val( 2p)     1.16007      -0.09569
 150    C  7  pz     Ryd( 4p)     0.00305       1.08182
 151    C  7  pz     Ryd( 3p)     0.00010       0.51184
 152    C  7  dxy    Ryd( 3d)     0.00226       1.08814
 153    C  7  dxy    Ryd( 4d)     0.00076       1.79327
 154    C  7  dxz    Ryd( 3d)     0.00201       1.49037
 155    C  7  dxz    Ryd( 4d)     0.00063       1.82596
 156    C  7  dyz    Ryd( 3d)     0.00181       1.20176
 157    C  7  dyz    Ryd( 4d)     0.00086       1.81270
 158    C  7  dx2y2  Ryd( 3d)     0.00306       1.26171
 159    C  7  dx2y2  Ryd( 4d)     0.00054       1.82320
 160    C  7  dz2    Ryd( 3d)     0.00308       1.44481
 161    C  7  dz2    Ryd( 4d)     0.00067       1.79946
 
 162    C  8  s      Cor( 1s)     1.99888     -10.17179
 163    C  8  s      Val( 2s)     0.99707      -0.19087
 164    C  8  s      Ryd( 4s)     0.00090       1.73402
 165    C  8  s      Ryd( 3s)     0.00016       0.64306
 166    C  8  px     Val( 2p)     0.99647      -0.08323
 167    C  8  px     Ryd( 4p)     0.00403       0.91174
 168    C  8  px     Ryd( 3p)     0.00015       0.41665
 169    C  8  py     Val( 2p)     1.11217      -0.06268
 170    C  8  py     Ryd( 4p)     0.00333       0.93641
 171    C  8  py     Ryd( 3p)     0.00011       0.42843
 172    C  8  pz     Val( 2p)     1.03120      -0.06795
 173    C  8  pz     Ryd( 4p)     0.00429       0.94404
 174    C  8  pz     Ryd( 3p)     0.00011       0.41024
 175    C  8  dxy    Ryd( 4d)     0.00116       1.73277
 176    C  8  dxy    Ryd( 3d)     0.00060       1.28508
 177    C  8  dxz    Ryd( 4d)     0.00211       1.83587
 178    C  8  dxz    Ryd( 3d)     0.00036       1.22993
 179    C  8  dyz    Ryd( 4d)     0.00073       1.89337
 180    C  8  dyz    Ryd( 3d)     0.00088       1.33714
 181    C  8  dx2y2  Ryd( 4d)     0.00170       1.83934
 182    C  8  dx2y2  Ryd( 3d)     0.00028       1.29734
 183    C  8  dz2    Ryd( 4d)     0.00086       1.59865
 184    C  8  dz2    Ryd( 3d)     0.00027       1.25949
 
 185    C  9  s      Cor( 1s)     1.99884     -10.16241
 186    C  9  s      Val( 2s)     0.99605      -0.19120
 187    C  9  s      Ryd( 4s)     0.00071       1.70937
 188    C  9  s      Ryd( 3s)     0.00021       0.61009
 189    C  9  px     Val( 2p)     1.03406      -0.09083
 190    C  9  px     Ryd( 4p)     0.00322       0.86734
 191    C  9  px     Ryd( 3p)     0.00016       0.36909
 192    C  9  py     Val( 2p)     1.14090      -0.06700
 193    C  9  py     Ryd( 4p)     0.00326       0.98768
 194    C  9  py     Ryd( 3p)     0.00013       0.45935
 195    C  9  pz     Val( 2p)     1.06000      -0.07056
 196    C  9  pz     Ryd( 4p)     0.00353       0.96625
 197    C  9  pz     Ryd( 3p)     0.00017       0.44000
 198    C  9  dxy    Ryd( 4d)     0.00103       1.58078
 199    C  9  dxy    Ryd( 3d)     0.00050       1.35293
 200    C  9  dxz    Ryd( 4d)     0.00232       1.65650
 201    C  9  dxz    Ryd( 3d)     0.00031       1.23222
 202    C  9  dyz    Ryd( 4d)     0.00072       1.98629
 203    C  9  dyz    Ryd( 3d)     0.00093       1.38398
 204    C  9  dx2y2  Ryd( 4d)     0.00180       1.89631
 205    C  9  dx2y2  Ryd( 3d)     0.00026       1.28137
 206    C  9  dz2    Ryd( 4d)     0.00097       1.59722
 207    C  9  dz2    Ryd( 3d)     0.00016       1.29101
 
 208    C 10  s      Cor( 1s)     1.99912     -10.21705
 209    C 10  s      Val( 2s)     0.97341      -0.22413
 210    C 10  s      Ryd( 4s)     0.00156       1.98033
 211    C 10  s      Ryd( 3s)     0.00007       0.79565
 212    C 10  px     Val( 2p)     0.81082      -0.03670
 213    C 10  px     Ryd( 4p)     0.00319       0.88782
 214    C 10  px     Ryd( 3p)     0.00018       0.47860
 215    C 10  py     Val( 2p)     1.07848      -0.10607
 216    C 10  py     Ryd( 4p)     0.00651       1.02278
 217    C 10  py     Ryd( 3p)     0.00014       0.63070
 218    C 10  pz     Val( 2p)     1.13812      -0.10580
 219    C 10  pz     Ryd( 4p)     0.00281       1.04316
 220    C 10  pz     Ryd( 3p)     0.00013       0.57918
 221    C 10  dxy    Ryd( 3d)     0.00152       1.13917
 222    C 10  dxy    Ryd( 4d)     0.00123       1.89620
 223    C 10  dxz    Ryd( 3d)     0.00223       1.36475
 224    C 10  dxz    Ryd( 4d)     0.00119       1.84946
 225    C 10  dyz    Ryd( 3d)     0.00094       1.30153
 226    C 10  dyz    Ryd( 4d)     0.00116       1.87226
 227    C 10  dx2y2  Ryd( 3d)     0.00216       1.07782
 228    C 10  dx2y2  Ryd( 4d)     0.00142       1.91544
 229    C 10  dz2    Ryd( 3d)     0.00256       1.40292
 230    C 10  dz2    Ryd( 4d)     0.00110       1.84065
 
 231    H 11  s      Val( 1s)     0.76976       0.08991
 232    H 11  s      Ryd( 2s)     0.00104       0.46262
 233    H 11  s      Ryd( 3s)     0.00002       0.81882
 234    H 11  px     Ryd( 2p)     0.00077       0.46080
 235    H 11  px     Ryd( 3p)     0.00074       2.46817
 236    H 11  py     Ryd( 2p)     0.00208       0.50808
 237    H 11  py     Ryd( 3p)     0.00020       2.19894
 238    H 11  pz     Ryd( 2p)     0.00006       0.46334
 239    H 11  pz     Ryd( 3p)     0.00020       1.90757
 
 240    H 12  s      Val( 1s)     0.75744       0.08703
 241    H 12  s      Ryd( 2s)     0.00057       0.46890
 242    H 12  s      Ryd( 3s)     0.00002       0.77954
 243    H 12  px     Ryd( 2p)     0.00106       0.59933
 244    H 12  px     Ryd( 3p)     0.00048       2.30116
 245    H 12  py     Ryd( 2p)     0.00133       0.61593
 246    H 12  py     Ryd( 3p)     0.00040       2.17731
 247    H 12  pz     Ryd( 2p)     0.00028       0.54068
 248    H 12  pz     Ryd( 3p)     0.00018       1.84034
 
 249    H 13  s      Val( 1s)     0.77383       0.06035
 250    H 13  s      Ryd( 2s)     0.00059       0.48036
 251    H 13  s      Ryd( 3s)     0.00004       0.71939
 252    H 13  px     Ryd( 2p)     0.00053       0.97619
 253    H 13  px     Ryd( 3p)     0.00042       1.69186
 254    H 13  py     Ryd( 2p)     0.00110       1.01911
 255    H 13  py     Ryd( 3p)     0.00041       2.07477
 256    H 13  pz     Ryd( 2p)     0.00020       0.82703
 257    H 13  pz     Ryd( 3p)     0.00011       1.54232
 
 258    H 14  s      Val( 1s)     0.75759       0.10283
 259    H 14  s      Ryd( 2s)     0.00095       0.55504
 260    H 14  s      Ryd( 3s)     0.00004       0.61837
 261    H 14  px     Ryd( 2p)     0.00189       0.55001
 262    H 14  px     Ryd( 3p)     0.00015       2.19815
 263    H 14  py     Ryd( 2p)     0.00049       0.49777
 264    H 14  py     Ryd( 3p)     0.00086       2.55885
 265    H 14  pz     Ryd( 2p)     0.00012       0.48825
 266    H 14  pz     Ryd( 3p)     0.00021       1.92740
 
 267    H 15  s      Val( 1s)     0.74387       0.08488
 268    H 15  s      Ryd( 2s)     0.00093       0.54310
 269    H 15  s      Ryd( 3s)     0.00008       0.64744
 270    H 15  px     Ryd( 2p)     0.00100       0.64397
 271    H 15  px     Ryd( 3p)     0.00029       2.11611
 272    H 15  py     Ryd( 2p)     0.00044       0.60335
 273    H 15  py     Ryd( 3p)     0.00026       2.13974
 274    H 15  pz     Ryd( 2p)     0.00065       0.61324
 275    H 15  pz     Ryd( 3p)     0.00052       2.29969
 
 276    H 16  s      Val( 1s)     0.77203       0.08192
 277    H 16  s      Ryd( 2s)     0.00061       0.50063
 278    H 16  s      Ryd( 3s)     0.00005       0.59299
 279    H 16  px     Ryd( 2p)     0.00034       0.77297
 280    H 16  px     Ryd( 3p)     0.00027       1.83404
 281    H 16  py     Ryd( 2p)     0.00082       0.82970
 282    H 16  py     Ryd( 3p)     0.00053       1.92809
 283    H 16  pz     Ryd( 2p)     0.00050       0.80253
 284    H 16  pz     Ryd( 3p)     0.00038       1.90487
 
 285    H 17  s      Val( 1s)     0.77084       0.08003
 286    H 17  s      Ryd( 2s)     0.00060       0.51297
 287    H 17  s      Ryd( 3s)     0.00005       0.56864
 288    H 17  px     Ryd( 2p)     0.00036       0.80668
 289    H 17  px     Ryd( 3p)     0.00030       1.72663
 290    H 17  py     Ryd( 2p)     0.00085       0.87619
 291    H 17  py     Ryd( 3p)     0.00050       1.97282
 292    H 17  pz     Ryd( 2p)     0.00061       0.84524
 293    H 17  pz     Ryd( 3p)     0.00036       1.88923
 
 294    H 18  s      Val( 1s)     0.75750       0.06841
 295    H 18  s      Ryd( 2s)     0.00053       0.50752
 296    H 18  s      Ryd( 3s)     0.00003       0.75318
 297    H 18  px     Ryd( 2p)     0.00036       1.26666
 298    H 18  px     Ryd( 3p)     0.00030       1.42492
 299    H 18  py     Ryd( 2p)     0.00038       1.26026
 300    H 18  py     Ryd( 3p)     0.00030       1.52586
 301    H 18  pz     Ryd( 2p)     0.00077       1.28521
 302    H 18  pz     Ryd( 3p)     0.00034       1.60368
 
   1 low occupancy (<1.9990e) core orbital  found on  C  3
   1 low occupancy (<1.9990e) core orbital  found on  B  5
   1 low occupancy (<1.9990e) core orbital  found on  C  6
   1 low occupancy (<1.9990e) core orbital  found on  C  8
   1 low occupancy (<1.9990e) core orbital  found on  C  9
 
     Population inversion found on atom  C  1
     Population inversion found on atom  C  2
     Population inversion found on atom  C  3
     Population inversion found on atom  N  4
     Population inversion found on atom  B  5
     Population inversion found on atom  C  6
     Population inversion found on atom  C  7
     Population inversion found on atom  C  8
     Population inversion found on atom  C  9
     Population inversion found on atom  C 10
     Population inversion found on atom  H 11
     Population inversion found on atom  H 14


 Summary of Natural Population Analysis:

                                     Natural Population
             Natural    ---------------------------------------------
  Atom No    Charge        Core      Valence    Rydberg      Total
 --------------------------------------------------------------------
    C  1   -0.16695      1.99904     4.14896    0.01895     6.16695
    C  2   -0.33126      1.99901     4.31406    0.01819     6.33126
    C  3    0.07221      1.99896     3.90670    0.02213     5.92779
    N  4   -0.68012      1.99917     5.66348    0.01747     7.68012
    B  5    0.86555      1.99893     2.11558    0.01993     4.13445
    C  6   -0.61003      1.99886     4.59131    0.01986     6.61003
    C  7   -0.57656      1.99901     4.54824    0.02932     6.57656
    C  8   -0.15785      1.99888     4.13691    0.02206     6.15785
    C  9   -0.25025      1.99884     4.23101    0.02040     6.25025
    C 10   -0.03004      1.99912     4.00083    0.03010     6.03004
    H 11    0.22513      0.00000     0.76976    0.00511     0.77487
    H 12    0.23825      0.00000     0.75744    0.00431     0.76175
    H 13    0.22276      0.00000     0.77383    0.00341     0.77724
    H 14    0.23770      0.00000     0.75759    0.00471     0.76230
    H 15    0.25196      0.00000     0.74387    0.00417     0.74804
    H 16    0.22448      0.00000     0.77203    0.00349     0.77552
    H 17    0.22554      0.00000     0.77084    0.00362     0.77446
    H 18    0.23948      0.00000     0.75750    0.00302     0.76052
 ====================================================================
 * Total * -0.00000     19.98982    47.75993    0.25025    68.00000

                                 Natural Population      
 --------------------------------------------------------
   Core                      19.98982 ( 99.9491% of  20)
   Valence                   47.75993 ( 99.4999% of  48)
   Natural Minimal Basis     67.74975 ( 99.6320% of  68)
   Natural Rydberg Basis      0.25025 (  0.3680% of  68)
 --------------------------------------------------------

    Atom No         Natural Electron Configuration
 ----------------------------------------------------------------------------
      C  1      [core]2s( 0.97)2p( 3.18)4p( 0.01)
      C  2      [core]2s( 0.97)2p( 3.35)4p( 0.01)
      C  3      [core]2s( 0.92)2p( 2.99)4p( 0.01)4d( 0.01)
      N  4      [core]2s( 1.27)2p( 4.40)3d( 0.01)4p( 0.01)
      B  5      [core]2s( 0.57)2p( 1.55)3d( 0.01)4p( 0.01)
      C  6      [core]2s( 1.07)2p( 3.52)3d( 0.01)4p( 0.01)
      C  7      [core]2s( 1.07)2p( 3.48)3d( 0.01)4p( 0.01)
      C  8      [core]2s( 1.00)2p( 3.14)4p( 0.01)4d( 0.01)
      C  9      [core]2s( 1.00)2p( 3.23)4p( 0.01)4d( 0.01)
      C 10      [core]2s( 0.97)2p( 3.03)3d( 0.01)4p( 0.01)4d( 0.01)
      H 11            1s( 0.77)
      H 12            1s( 0.76)
      H 13            1s( 0.77)
      H 14            1s( 0.76)
      H 15            1s( 0.74)
      H 16            1s( 0.77)
      H 17            1s( 0.77)
      H 18            1s( 0.76)


 NATURAL BOND ORBITAL ANALYSIS:

                       Occupancies       Lewis Structure    Low   High
           Occ.    -------------------  -----------------   occ   occ
  Cycle   Thresh.   Lewis   Non-Lewis     CR  BD  3C  LP    (L)   (NL)   Dev
 =============================================================================
   1(1)    1.90    65.11095   2.88905     10  21   0   3     3      3    0.61
   2(2)    1.90    65.11095   2.88905     10  21   0   3     3      3    0.61
   3(1)    1.80    65.42554   2.57446     10  22   0   2     2      3    0.61
   4(2)    1.80    65.42554   2.57446     10  22   0   2     2      3    0.61
   5(1)    1.70    66.74369   1.25631     10  24   0   0     0      3    0.28
   6(2)    1.70    66.74369   1.25631     10  24   0   0     0      3    0.28
   7(1)    1.60    66.36333   1.63667     10  23   0   1     0      4    0.28
   8(2)    1.60    65.77251   2.22749     10  22   0   2     1      4    0.89
   9(3)    1.60    66.36333   1.63667     10  23   0   1     0      4    0.28
  10(1)    1.50    65.20146   2.79854     10  21   0   3     1      4    0.89
  11(2)    1.50    65.20146   2.79854     10  21   0   3     1      4    0.89
  12(1)    1.70    66.74369   1.25631     10  24   0   0     0      3    0.28
 -----------------------------------------------------------------------------

 Strongly delocalized structure accepted

           1 low occupancy (<1.9990e) core orbital  found on  C 3
           1 low occupancy (<1.9990e) core orbital  found on  B 5
           1 low occupancy (<1.9990e) core orbital  found on  C 6
           1 low occupancy (<1.9990e) core orbital  found on  C 8
           1 low occupancy (<1.9990e) core orbital  found on  C 9

 --------------------------------------------------------
   Core                     19.98984 ( 99.949% of  20)
   Valence Lewis            46.75385 ( 97.404% of  48)
  ==================       ============================
   Total Lewis              66.74369 ( 98.152% of  68)
  -----------------------------------------------------
   Valence non-Lewis         1.11694 (  1.643% of  68)
   Rydberg non-Lewis         0.13937 (  0.205% of  68)
  ==================       ============================
   Total non-Lewis           1.25631 (  1.848% of  68)
 --------------------------------------------------------


     (Occupancy)   Bond orbital/ Coefficients/ Hybrids
 -------------------------------------------------------------------------------
   1. (1.97641) BD ( 1) C  1- C  2       
               ( 49.63%)   0.7045* C  1 s( 34.29%)p 1.91( 65.55%)d 0.00(  0.16%)
                                        -0.0000 -0.5855 -0.0092 -0.0016  0.0694
                                        -0.0334 -0.0004 -0.8054 -0.0159  0.0048
                                         0.0218 -0.0075 -0.0002  0.0093  0.0048
                                        -0.0043 -0.0050  0.0026  0.0013  0.0247
                                         0.0035  0.0245  0.0140
               ( 50.37%)   0.7097* C  2 s( 34.99%)p 1.85( 64.85%)d 0.00(  0.16%)
                                         0.0000 -0.5915 -0.0077 -0.0014 -0.0780
                                        -0.0345 -0.0026  0.8003  0.0084 -0.0054
                                        -0.0242 -0.0079 -0.0005 -0.0031  0.0014
                                        -0.0050  0.0034 -0.0003  0.0002  0.0270
                                        -0.0017  0.0274 -0.0091
   2. (1.97930) BD ( 1) C  1- C  6       
               ( 50.19%)   0.7085* C  1 s( 37.78%)p 1.64( 62.10%)d 0.00(  0.12%)
                                        -0.0000  0.6146  0.0114  0.0013 -0.5904
                                         0.0165  0.0051 -0.5019 -0.0362  0.0016
                                        -0.1373  0.0042  0.0012  0.0217  0.0023
                                         0.0102  0.0049  0.0047  0.0003  0.0069
                                         0.0023 -0.0208 -0.0109
               ( 49.81%)   0.7058* C  6 s( 33.15%)p 2.01( 66.66%)d 0.01(  0.19%)
                                        -0.0000  0.5755  0.0164  0.0027  0.6346
                                         0.0417 -0.0025  0.4952 -0.0113 -0.0024
                                         0.1288  0.0098 -0.0005  0.0280  0.0065
                                         0.0111  0.0013  0.0055  0.0013 -0.0037
                                         0.0029 -0.0296 -0.0025
   3. (1.76952) BD ( 2) C  1- C  6       
               ( 46.66%)   0.6831* C  1 s(  0.00%)p 1.00( 99.93%)d 0.00(  0.07%)
                                        -0.0000  0.0037  0.0002 -0.0003 -0.2261
                                         0.0027 -0.0015  0.0041  0.0002  0.0003
                                         0.9736 -0.0139  0.0082  0.0012 -0.0013
                                        -0.0219  0.0037 -0.0059  0.0060  0.0055
                                        -0.0011 -0.0093  0.0008
               ( 53.34%)   0.7304* C  6 s(  0.01%)p 1.00( 99.91%)d 0.00(  0.08%)
                                        -0.0001  0.0075  0.0004 -0.0002 -0.2165
                                         0.0018 -0.0024  0.0149  0.0002  0.0001
                                         0.9756 -0.0062  0.0113 -0.0051 -0.0025
                                         0.0063  0.0073  0.0236  0.0110 -0.0015
                                        -0.0021  0.0011  0.0031
   4. (1.98075) BD ( 1) C  1- H 11       
               ( 61.61%)   0.7849* C  1 s( 27.75%)p 2.60( 72.18%)d 0.00(  0.07%)
                                        -0.0003  0.5265 -0.0172 -0.0029  0.7703
                                        -0.0122  0.0004 -0.3108 -0.0010 -0.0004
                                         0.1782 -0.0028  0.0001 -0.0079  0.0119
                                         0.0064 -0.0053 -0.0019  0.0027  0.0095
                                        -0.0146 -0.0100  0.0041
               ( 38.39%)   0.6196* H 11 s( 99.84%)p 0.00(  0.16%)
                                         0.9992 -0.0032  0.0002 -0.0214 -0.0287
                                         0.0093  0.0121 -0.0050 -0.0067
   5. (1.97629) BD ( 1) C  2- C  3       
               ( 49.69%)   0.7049* C  2 s( 35.11%)p 1.84( 64.72%)d 0.00(  0.16%)
                                         0.0001  0.5924  0.0160  0.0009 -0.6965
                                        -0.0060  0.0058  0.3647  0.0398 -0.0006
                                        -0.1658 -0.0018  0.0014 -0.0166 -0.0024
                                         0.0157 -0.0037 -0.0041 -0.0004  0.0196
                                         0.0002 -0.0247  0.0087
               ( 50.31%)   0.7093* C  3 s( 39.68%)p 1.52( 60.18%)d 0.00(  0.14%)
                                        -0.0001  0.6298  0.0086 -0.0020  0.6831
                                         0.0153 -0.0026 -0.3288  0.0299  0.0025
                                         0.1609  0.0035 -0.0008 -0.0178 -0.0161
                                         0.0074  0.0098 -0.0041 -0.0037  0.0077
                                         0.0039 -0.0129 -0.0205
   6. (1.78803) BD ( 2) C  2- C  3       
               ( 54.90%)   0.7409* C  2 s(  0.00%)p 1.00( 99.95%)d 0.00(  0.05%)
                                         0.0000  0.0016 -0.0003 -0.0001 -0.2259
                                         0.0057 -0.0024  0.0086 -0.0005  0.0001
                                         0.9735 -0.0241  0.0100 -0.0007  0.0002
                                        -0.0184 -0.0074  0.0020 -0.0009  0.0045
                                         0.0019 -0.0079 -0.0033
               ( 45.10%)   0.6716* C  3 s(  0.00%)p 1.00( 99.91%)d 0.00(  0.09%)
                                        -0.0000  0.0020 -0.0009 -0.0003 -0.2265
                                         0.0071 -0.0028  0.0093 -0.0000  0.0001
                                         0.9731 -0.0245  0.0140  0.0042 -0.0013
                                         0.0181  0.0084 -0.0181  0.0071 -0.0042
                                        -0.0022  0.0077  0.0041
   7. (1.97933) BD ( 1) C  2- H 12       
               ( 61.99%)   0.7873* C  2 s( 29.72%)p 2.36( 70.21%)d 0.00(  0.06%)
                                        -0.0003  0.5449 -0.0185 -0.0023  0.6747
                                        -0.0012 -0.0021  0.4732 -0.0027 -0.0011
                                         0.1516 -0.0001 -0.0005  0.0067  0.0186
                                         0.0045  0.0036  0.0013  0.0043  0.0010
                                         0.0068 -0.0106 -0.0051
               ( 38.01%)   0.6165* H 12 s( 99.83%)p 0.00(  0.17%)
                                         0.9992 -0.0013  0.0003 -0.0259 -0.0199
                                        -0.0181 -0.0148 -0.0059 -0.0044
   8. (1.98511) BD ( 1) C  3- N  4       
               ( 36.17%)   0.6014* C  3 s( 28.89%)p 2.46( 70.93%)d 0.01(  0.19%)
                                        -0.0001  0.5367  0.0286  0.0037 -0.6816
                                        -0.0494  0.0032 -0.4668 -0.0021  0.0040
                                        -0.1553 -0.0138  0.0001  0.0322  0.0096
                                         0.0114  0.0005  0.0076  0.0019  0.0101
                                         0.0004 -0.0206 -0.0033
               ( 63.83%)   0.7989* N  4 s( 35.32%)p 1.83( 64.60%)d 0.00(  0.07%)
                                         0.0000  0.5939  0.0221 -0.0001  0.5618
                                        -0.0036  0.0024  0.5586  0.0153  0.0033
                                         0.1345 -0.0004 -0.0000  0.0157  0.0098
                                         0.0097 -0.0012  0.0052  0.0015  0.0056
                                        -0.0013 -0.0156  0.0003
   9. (1.98233) BD ( 1) C  3- H 13       
               ( 61.43%)   0.7837* C  3 s( 31.40%)p 2.18( 68.53%)d 0.00(  0.08%)
                                        -0.0003  0.5600 -0.0199 -0.0007 -0.1134
                                         0.0022 -0.0009  0.8191 -0.0122 -0.0054
                                        -0.0354  0.0007 -0.0002 -0.0082  0.0005
                                        -0.0001  0.0049 -0.0026 -0.0000 -0.0196
                                         0.0133 -0.0106 -0.0032
               ( 38.57%)   0.6211* H 13 s( 99.84%)p 0.00(  0.16%)
                                         0.9992 -0.0022  0.0004  0.0037  0.0005
                                        -0.0356 -0.0171  0.0011  0.0005
  10. (1.96060) BD ( 1) N  4- B  5       
               ( 80.33%)   0.8963* N  4 s( 37.10%)p 1.69( 62.79%)d 0.00(  0.11%)
                                         0.0001 -0.6089  0.0156  0.0026 -0.1213
                                        -0.0126 -0.0015  0.7813 -0.0187 -0.0036
                                        -0.0468 -0.0004  0.0012 -0.0027  0.0022
                                        -0.0057  0.0036  0.0037 -0.0009  0.0121
                                         0.0083  0.0269 -0.0083
               ( 19.67%)   0.4435* B  5 s( 23.97%)p 3.15( 75.48%)d 0.02(  0.54%)
                                         0.0002 -0.4893  0.0170 -0.0046 -0.0931
                                        -0.0074 -0.0003 -0.8633 -0.0272  0.0061
                                        -0.0054  0.0026  0.0000 -0.0079 -0.0089
                                         0.0001 -0.0004 -0.0022  0.0009  0.0362
                                         0.0477  0.0164  0.0380
  11. (1.74004) BD ( 2) N  4- B  5       
               ( 85.86%)   0.9266* N  4 s(  0.04%)p99.99( 99.94%)d 0.49(  0.02%)
                                         0.0000 -0.0206 -0.0009 -0.0017 -0.2199
                                         0.0004 -0.0027  0.0083  0.0004  0.0008
                                         0.9751  0.0109  0.0027  0.0025 -0.0009
                                        -0.0040  0.0073 -0.0105  0.0036  0.0013
                                        -0.0018  0.0011  0.0020
               ( 14.14%)   0.3760* B  5 s(  0.01%)p 1.00( 99.71%)d 0.00(  0.28%)
                                         0.0003 -0.0099  0.0007  0.0001 -0.2064
                                        -0.0026 -0.0045  0.0218  0.0009  0.0002
                                         0.9767 -0.0010  0.0055 -0.0035 -0.0118
                                        -0.0010  0.0030 -0.0019  0.0501  0.0049
                                        -0.0013 -0.0099 -0.0016
  12. (1.97897) BD ( 1) N  4- C 10       
               ( 64.19%)   0.8012* N  4 s( 27.32%)p 2.66( 72.59%)d 0.00(  0.08%)
                                         0.0001 -0.5227 -0.0001 -0.0036  0.7877
                                        -0.0149 -0.0063 -0.2761 -0.0183 -0.0042
                                         0.1690 -0.0003  0.0008 -0.0002  0.0075
                                        -0.0057 -0.0027  0.0003  0.0009 -0.0181
                                        -0.0015  0.0196 -0.0020
               ( 35.81%)   0.5984* C 10 s( 21.43%)p 3.66( 78.35%)d 0.01(  0.23%)
                                         0.0001 -0.4625 -0.0191 -0.0046 -0.8598
                                        -0.0288  0.0042 -0.0959 -0.0258 -0.0013
                                        -0.1826  0.0102  0.0013  0.0135 -0.0039
                                        -0.0169 -0.0120  0.0008  0.0008 -0.0118
                                        -0.0309  0.0180  0.0146
  13. (1.97267) BD ( 1) B  5- C  6       
               ( 32.95%)   0.5740* B  5 s( 40.89%)p 1.44( 59.00%)d 0.00(  0.11%)
                                         0.0000  0.6393  0.0165 -0.0016  0.6200
                                        -0.0219 -0.0013 -0.4273 -0.0299  0.0041
                                         0.1467  0.0003 -0.0011  0.0013 -0.0124
                                         0.0150  0.0050 -0.0020 -0.0016  0.0196
                                         0.0123 -0.0117 -0.0040
               ( 67.05%)   0.8188* C  6 s( 38.66%)p 1.58( 61.17%)d 0.00(  0.17%)
                                         0.0000  0.6217 -0.0036 -0.0015 -0.7222
                                         0.0071  0.0077  0.2449 -0.0389 -0.0034
                                        -0.1688  0.0010  0.0013 -0.0221 -0.0060
                                         0.0137  0.0000 -0.0052 -0.0015  0.0101
                                         0.0040 -0.0287  0.0032
  14. (1.94902) BD ( 1) B  5- C  7       
               ( 31.49%)   0.5612* B  5 s( 35.03%)p 1.85( 64.83%)d 0.00(  0.15%)
                                        -0.0002  0.5918 -0.0050 -0.0004 -0.7498
                                         0.0232  0.0051 -0.2521 -0.0166 -0.0024
                                        -0.1470 -0.0036  0.0005 -0.0200  0.0000
                                        -0.0069  0.0097 -0.0009  0.0004  0.0118
                                         0.0246 -0.0040 -0.0122
               ( 68.51%)   0.8277* C  7 s( 29.83%)p 2.34( 69.93%)d 0.01(  0.24%)
                                         0.0003  0.5461 -0.0079 -0.0001  0.7760
                                        -0.0295 -0.0020 -0.2469 -0.0331 -0.0003
                                         0.1824 -0.0314  0.0006  0.0197 -0.0003
                                         0.0181  0.0033  0.0098 -0.0010  0.0298
                                         0.0079 -0.0250  0.0003
  15. (1.98012) BD ( 1) C  6- H 14       
               ( 62.15%)   0.7884* C  6 s( 27.85%)p 2.59( 72.07%)d 0.00(  0.07%)
                                         0.0002 -0.5277  0.0096  0.0003 -0.1620
                                        -0.0012  0.0001  0.8322  0.0039 -0.0000
                                        -0.0446 -0.0005 -0.0003  0.0014  0.0102
                                        -0.0018 -0.0009  0.0003  0.0025 -0.0035
                                         0.0208  0.0020  0.0134
               ( 37.85%)   0.6152* H 14 s( 99.86%)p 0.00(  0.14%)
                                        -0.9993  0.0014 -0.0005  0.0045  0.0053
                                        -0.0189 -0.0315  0.0010  0.0015
  16. (1.96814) BD ( 1) C  7- C  8       
               ( 51.15%)   0.7152* C  7 s( 24.76%)p 3.03( 74.97%)d 0.01(  0.27%)
                                         0.0000  0.4975  0.0080  0.0001 -0.5303
                                        -0.0280  0.0008 -0.0600 -0.0315  0.0013
                                         0.6805 -0.0043 -0.0002 -0.0148  0.0002
                                        -0.0325 -0.0102  0.0297 -0.0000 -0.0047
                                         0.0095  0.0157  0.0069
               ( 48.85%)   0.6989* C  8 s( 29.65%)p 2.37( 70.14%)d 0.01(  0.21%)
                                        -0.0001  0.5444 -0.0100  0.0063  0.4414
                                        -0.0213 -0.0047 -0.3197 -0.0435 -0.0007
                                        -0.6340  0.0104  0.0050 -0.0010 -0.0027
                                        -0.0419  0.0094  0.0049  0.0023  0.0083
                                        -0.0029  0.0136  0.0007
  17. (1.94978) BD ( 1) C  7- C 10       
               ( 49.06%)   0.7005* C  7 s( 17.88%)p 4.57( 81.72%)d 0.02(  0.40%)
                                         0.0000 -0.4228  0.0083  0.0011 -0.0293
                                         0.0130  0.0037 -0.8782  0.0042 -0.0013
                                         0.2097  0.0300 -0.0000 -0.0116 -0.0015
                                         0.0141 -0.0019 -0.0148  0.0052  0.0380
                                         0.0128  0.0423  0.0075
               ( 50.94%)   0.7137* C 10 s( 22.21%)p 3.49( 77.46%)d 0.01(  0.33%)
                                         0.0002 -0.4710  0.0162 -0.0001  0.1197
                                         0.0116  0.0004  0.8511 -0.0313  0.0010
                                         0.1834  0.0334 -0.0012  0.0002 -0.0039
                                         0.0155 -0.0015  0.0134 -0.0029  0.0355
                                         0.0143  0.0359  0.0071
  18. (1.97641) BD ( 1) C  7- H 15       
               ( 63.00%)   0.7937* C  7 s( 26.97%)p 2.71( 72.95%)d 0.00(  0.08%)
                                         0.0002 -0.5193 -0.0075 -0.0011  0.3346
                                         0.0046 -0.0004  0.4000  0.0119  0.0034
                                         0.6763  0.0030  0.0008  0.0039 -0.0079
                                         0.0060 -0.0149  0.0083 -0.0145 -0.0074
                                         0.0001  0.0024 -0.0115
               ( 37.00%)   0.6083* H 15 s( 99.84%)p 0.00(  0.16%)
                                        -0.9992  0.0023 -0.0001 -0.0136 -0.0103
                                        -0.0126 -0.0143 -0.0186 -0.0247
  19. (1.98249) BD ( 1) C  8- C  9       
               ( 49.95%)   0.7068* C  8 s( 36.18%)p 1.76( 63.59%)d 0.01(  0.23%)
                                         0.0000  0.6013  0.0147 -0.0007  0.0016
                                        -0.0340 -0.0014  0.7860  0.0163 -0.0053
                                         0.1217  0.0419  0.0004  0.0122 -0.0054
                                        -0.0135  0.0119  0.0001  0.0024 -0.0370
                                         0.0050 -0.0208  0.0013
               ( 50.05%)   0.7074* C  9 s( 36.33%)p 1.75( 63.44%)d 0.01(  0.24%)
                                         0.0000  0.6026  0.0129 -0.0016 -0.1826
                                        -0.0340 -0.0013 -0.7638 -0.0096  0.0052
                                         0.1208  0.0418  0.0019  0.0045  0.0029
                                        -0.0129  0.0093  0.0036 -0.0045 -0.0398
                                         0.0046 -0.0209  0.0004
  20. (1.93981) BD ( 2) C  8- C  9       
               ( 47.42%)   0.6886* C  8 s(  0.01%)p99.99( 99.81%)d12.49(  0.18%)
                                         0.0002 -0.0116 -0.0010 -0.0026  0.8007
                                        -0.0246  0.0104 -0.0847  0.0033 -0.0019
                                         0.5906 -0.0146  0.0060  0.0303  0.0067
                                         0.0001  0.0001  0.0229  0.0032  0.0130
                                         0.0005 -0.0098  0.0016
               ( 52.58%)   0.7251* C  9 s(  0.02%)p99.99( 99.82%)d 6.43(  0.15%)
                                         0.0002 -0.0149  0.0003 -0.0041  0.8099
                                        -0.0242  0.0108 -0.1143  0.0054 -0.0017
                                         0.5729 -0.0140  0.0068 -0.0299 -0.0068
                                        -0.0067 -0.0003 -0.0197 -0.0044 -0.0010
                                         0.0006 -0.0118 -0.0003
  21. (1.99332) BD ( 1) C  8- H 16       
               ( 61.97%)   0.7872* C  8 s( 33.79%)p 1.96( 66.14%)d 0.00(  0.07%)
                                         0.0002 -0.5813  0.0039  0.0037  0.4014
                                        -0.0011 -0.0006  0.5182  0.0024 -0.0015
                                        -0.4813  0.0011  0.0009 -0.0056 -0.0136
                                         0.0081  0.0068  0.0066  0.0183  0.0033
                                         0.0003 -0.0016 -0.0010
               ( 38.03%)   0.6167* H 16 s( 99.84%)p 0.00(  0.16%)
                                        -0.9992  0.0030 -0.0003 -0.0166 -0.0106
                                        -0.0228 -0.0112  0.0189  0.0138
  22. (1.97091) BD ( 1) C  9- C 10       
               ( 48.32%)   0.6951* C  9 s( 28.39%)p 2.51( 71.37%)d 0.01(  0.24%)
                                        -0.0001  0.5327 -0.0071  0.0087  0.4982
                                        -0.0001 -0.0041  0.1981  0.0445  0.0030
                                        -0.6512  0.0089  0.0063 -0.0034  0.0043
                                        -0.0447  0.0072  0.0047 -0.0037  0.0076
                                         0.0006  0.0165 -0.0003
               ( 51.68%)   0.7189* C 10 s( 27.74%)p 2.60( 72.04%)d 0.01(  0.22%)
                                         0.0001  0.5267 -0.0006 -0.0011 -0.4517
                                        -0.0151  0.0007  0.2093  0.0375 -0.0014
                                         0.6860 -0.0167  0.0004  0.0096 -0.0039
                                        -0.0365 -0.0101 -0.0147  0.0053  0.0002
                                         0.0049  0.0183  0.0100
  23. (1.99263) BD ( 1) C  9- H 17       
               ( 62.01%)   0.7875* C  9 s( 34.91%)p 1.86( 65.02%)d 0.00(  0.07%)
                                        -0.0002  0.5908 -0.0045 -0.0043 -0.2437
                                        -0.0011  0.0002  0.6004  0.0039 -0.0028
                                         0.4799  0.0019 -0.0026 -0.0014 -0.0112
                                        -0.0054 -0.0022  0.0079  0.0196 -0.0063
                                        -0.0067  0.0013  0.0015
               ( 37.99%)   0.6163* H 17 s( 99.84%)p 0.00(  0.16%)
                                         0.9992 -0.0031  0.0004  0.0110  0.0061
                                        -0.0268 -0.0121 -0.0205 -0.0130
  24. (1.98189) BD ( 1) C 10- H 18       
               ( 62.63%)   0.7914* C 10 s( 28.29%)p 2.53( 71.65%)d 0.00(  0.07%)
                                        -0.0002  0.5318  0.0036 -0.0018 -0.1938
                                         0.0005  0.0002  0.4675 -0.0000  0.0018
                                        -0.6784  0.0033 -0.0018  0.0006 -0.0045
                                        -0.0047  0.0070  0.0047 -0.0184  0.0042
                                        -0.0064 -0.0045  0.0123
               ( 37.37%)   0.6113* H 18 s( 99.84%)p 0.00(  0.16%)
                                         0.9992 -0.0030 -0.0001  0.0081  0.0058
                                        -0.0186 -0.0087  0.0297  0.0141
  25. (1.99904) CR ( 1) C  1             s(100.00%)p 0.00(  0.00%)
                                         1.0000  0.0002 -0.0000 -0.0000  0.0002
                                        -0.0000  0.0000 -0.0001 -0.0000  0.0000
                                         0.0001 -0.0000  0.0000 -0.0000  0.0000
                                         0.0000 -0.0000 -0.0000  0.0000  0.0000
                                        -0.0000 -0.0000  0.0000
  26. (1.99901) CR ( 1) C  2             s(100.00%)p 0.00(  0.00%)
                                         1.0000  0.0001 -0.0000 -0.0000  0.0003
                                         0.0000 -0.0000  0.0001 -0.0000 -0.0000
                                         0.0001  0.0000 -0.0000  0.0000  0.0000
                                        -0.0000  0.0000  0.0000  0.0000 -0.0000
                                         0.0000 -0.0000 -0.0000
  27. (1.99896) CR ( 1) C  3             s(100.00%)p 0.00(  0.00%)
                                         1.0000  0.0003 -0.0000 -0.0000 -0.0000
                                        -0.0000 -0.0000  0.0002 -0.0000 -0.0000
                                         0.0000 -0.0000  0.0000 -0.0000 -0.0000
                                         0.0000  0.0000 -0.0000 -0.0000 -0.0000
                                         0.0000 -0.0000 -0.0000
  28. (1.99917) CR ( 1) N  4             s(100.00%)
                                         1.0000  0.0001 -0.0000  0.0000 -0.0001
                                         0.0000  0.0000 -0.0001  0.0000  0.0000
                                        -0.0000 -0.0000 -0.0000  0.0000 -0.0000
                                         0.0000 -0.0000 -0.0000 -0.0000  0.0000
                                        -0.0000 -0.0000  0.0000
  29. (1.99893) CR ( 1) B  5             s(100.00%)p 0.00(  0.00%)
                                         1.0000  0.0002 -0.0000  0.0000 -0.0001
                                         0.0000  0.0000  0.0001  0.0000 -0.0000
                                        -0.0003 -0.0000 -0.0000 -0.0000  0.0000
                                        -0.0000  0.0000  0.0000 -0.0000 -0.0000
                                        -0.0000 -0.0000 -0.0000
  30. (1.99887) CR ( 1) C  6             s(100.00%)p 0.00(  0.00%)
                                         1.0000  0.0001 -0.0000  0.0000  0.0001
                                         0.0000 -0.0000 -0.0002  0.0000  0.0000
                                         0.0001 -0.0000  0.0000  0.0000 -0.0000
                                         0.0000  0.0000  0.0000  0.0000  0.0000
                                        -0.0000 -0.0000 -0.0000
  31. (1.99901) CR ( 1) C  7             s(100.00%)p 0.00(  0.00%)
                                         1.0000 -0.0000  0.0000  0.0000 -0.0003
                                         0.0000  0.0000  0.0000  0.0000 -0.0000
                                        -0.0002  0.0000 -0.0000 -0.0000  0.0000
                                        -0.0000  0.0000 -0.0000  0.0000 -0.0000
                                        -0.0000  0.0000  0.0000
  32. (1.99889) CR ( 1) C  8             s(100.00%)p 0.00(  0.00%)
                                         1.0000  0.0001 -0.0000  0.0000 -0.0001
                                         0.0000 -0.0000 -0.0001 -0.0000  0.0000
                                        -0.0001  0.0000 -0.0000 -0.0000  0.0000
                                        -0.0000 -0.0000 -0.0000 -0.0000 -0.0000
                                        -0.0000  0.0000 -0.0000
  33. (1.99884) CR ( 1) C  9             s(100.00%)p 0.00(  0.00%)
                                         1.0000  0.0002 -0.0000  0.0000 -0.0002
                                         0.0000 -0.0000  0.0002  0.0000 -0.0000
                                        -0.0001  0.0000 -0.0000  0.0000 -0.0000
                                        -0.0000 -0.0000  0.0000  0.0000 -0.0000
                                        -0.0000  0.0000  0.0000
  34. (1.99911) CR ( 1) C 10             s(100.00%)p 0.00(  0.00%)
                                         1.0000  0.0002 -0.0000  0.0000  0.0001
                                         0.0000 -0.0000 -0.0001  0.0000  0.0000
                                        -0.0003 -0.0000 -0.0000 -0.0000  0.0000
                                         0.0000  0.0000 -0.0000 -0.0000 -0.0000
                                        -0.0000 -0.0000 -0.0000
  35. (0.00642) RY*( 1) C  1             s(  1.32%)p69.67( 91.78%)d 5.24(  6.91%)
                                         0.0000  0.0213  0.0994 -0.0533 -0.0282
                                        -0.8366  0.0315  0.0084  0.4198  0.0460
                                        -0.0076 -0.1936  0.0051 -0.0673  0.1096
                                         0.0487  0.0036 -0.0189  0.0288  0.1172
                                        -0.1496 -0.0587 -0.0970
  36. (0.00287) RY*( 2) C  1             s(  0.04%)p99.99( 91.67%)d99.99(  8.30%)
                                        -0.0000 -0.0000  0.0184  0.0036  0.0084
                                        -0.4238 -0.0322  0.0384 -0.8476 -0.0868
                                         0.0019 -0.0928 -0.0029  0.0340  0.1962
                                        -0.0018  0.0328  0.0095  0.0449 -0.0027
                                         0.1967  0.0067  0.0372
  37. (0.00104) RY*( 3) C  1             s(  0.13%)p59.13(  7.51%)d99.99( 92.36%)
                                        -0.0000 -0.0017  0.0338 -0.0111  0.0064
                                         0.0722  0.0082 -0.0004 -0.0139  0.0067
                                        -0.0197 -0.2614  0.0285  0.1754 -0.0956
                                        -0.3382  0.0398 -0.7641  0.3906  0.0921
                                        -0.0114 -0.1478 -0.0288
  38. (0.00071) RY*( 4) C  1             s( 57.06%)p 0.06(  3.29%)d 0.69( 39.65%)
                                        -0.0000 -0.0242  0.7436 -0.1307  0.0301
                                         0.1071  0.0413 -0.0066 -0.1112  0.0510
                                         0.0077  0.0605  0.0068  0.0962 -0.1278
                                         0.1443  0.1810  0.0665 -0.0497  0.0691
                                        -0.0677 -0.2770 -0.4737
  39. (0.00024) RY*( 5) C  1             s(  4.82%)p 6.82( 32.87%)d12.94( 62.31%)
                                         0.0000 -0.0007  0.2133  0.0516  0.0052
                                         0.1050 -0.0854 -0.0218  0.2278 -0.3157
                                        -0.0002 -0.3943  0.0532 -0.0854  0.3197
                                         0.1124  0.1378  0.0188  0.0594 -0.4758
                                         0.4938 -0.0529  0.0712
  40. (0.00023) RY*( 6) C  1             s(  0.44%)p99.99( 67.86%)d72.31( 31.71%)
                                         0.0000 -0.0008  0.0625  0.0219  0.0013
                                        -0.1718  0.0178 -0.0114  0.1182 -0.1671
                                         0.0034  0.7684 -0.1275 -0.0293  0.1548
                                        -0.3630 -0.0129 -0.1062  0.0554 -0.1656
                                         0.2758 -0.2049 -0.0221
  41. (0.00014) RY*( 7) C  1             s( 34.22%)p 0.21(  7.06%)d 1.72( 58.72%)
                                        -0.0000  0.0150  0.5226  0.2625  0.0072
                                        -0.0504  0.0083  0.0066  0.0302  0.2579
                                         0.0015  0.0064 -0.0217  0.3298 -0.0253
                                        -0.1446 -0.2952  0.0943  0.0428 -0.0689
                                        -0.0276  0.2039  0.5585
  42. (0.00011) RY*( 8) C  1             s( 14.77%)p 0.86( 12.64%)d 4.91( 72.59%)
                                         0.0000  0.0059  0.2853 -0.2575 -0.0139
                                         0.1529 -0.2675  0.0010 -0.0185 -0.1566
                                        -0.0033  0.0566 -0.0565 -0.5503  0.3734
                                        -0.0096 -0.1279 -0.1250  0.0848  0.3733
                                        -0.1666  0.1989  0.1940
  43. (0.00006) RY*( 9) C  1             s( 12.95%)p 4.29( 55.59%)d 2.43( 31.46%)
  44. (0.00003) RY*(10) C  1             s(  5.41%)p 2.64( 14.28%)d14.85( 80.31%)
  45. (0.00000) RY*(11) C  1             s(  0.06%)p99.99( 11.09%)d99.99( 88.84%)
  46. (0.00001) RY*(12) C  1             s(  0.29%)p 5.49(  1.60%)d99.99( 98.11%)
  47. (0.00001) RY*(13) C  1             s( 66.39%)p 0.03(  1.87%)d 0.48( 31.74%)
  48. (0.00001) RY*(14) C  1             s(  0.07%)p25.43(  1.90%)d99.99( 98.03%)
  49. (0.00001) RY*(15) C  1             s(  0.63%)p 2.71(  1.70%)d99.99( 97.67%)
  50. (0.00000) RY*(16) C  1             s(  0.06%)p99.99( 99.31%)d10.11(  0.63%)
  51. (0.00001) RY*(17) C  1             s(  0.25%)p30.89(  7.65%)d99.99( 92.10%)
  52. (0.00000) RY*(18) C  1             s(  1.27%)p71.13( 90.58%)d 6.40(  8.15%)
  53. (0.00432) RY*( 1) C  2             s(  0.06%)p99.99( 92.96%)d99.99(  6.98%)
                                        -0.0000  0.0226  0.0074 -0.0017 -0.0177
                                        -0.7709 -0.0714 -0.0162 -0.5490  0.0087
                                        -0.0040 -0.1670 -0.0196  0.0461  0.2243
                                        -0.0186  0.0496  0.0079  0.0576 -0.0075
                                         0.0741  0.0271 -0.0700
  54. (0.00234) RY*( 2) C  2             s(  0.18%)p99.99( 89.54%)d56.10( 10.28%)
                                        -0.0000  0.0071 -0.0275  0.0320 -0.0305
                                         0.5291  0.0611  0.0339 -0.7618 -0.1090
                                        -0.0078  0.1311  0.0135 -0.0024 -0.0632
                                        -0.0619  0.0945 -0.0032 -0.0074 -0.1059
                                         0.2570  0.0692 -0.0625
  55. (0.00126) RY*( 3) C  2             s(  0.14%)p99.99( 86.45%)d97.97( 13.41%)
                                         0.0000 -0.0012  0.0370  0.0008 -0.0040
                                        -0.2031  0.0468  0.0006  0.0059 -0.0112
                                         0.0239  0.8959 -0.1326  0.0724  0.0269
                                        -0.0358  0.0345 -0.3275 -0.1219  0.0218
                                        -0.0203 -0.0362  0.0372
  56. (0.00073) RY*( 4) C  2             s( 78.76%)p 0.02(  1.91%)d 0.25( 19.33%)
                                         0.0000 -0.0159  0.8737 -0.1549  0.0245
                                         0.0436  0.0091  0.0113 -0.1091 -0.0580
                                         0.0046 -0.0331  0.0013 -0.0049  0.0062
                                         0.1406 -0.1349  0.0132  0.0204  0.1050
                                        -0.0429 -0.2729  0.2595
  57. (0.00047) RY*( 5) C  2             s(  0.05%)p99.99(  7.40%)d99.99( 92.55%)
                                        -0.0000  0.0003  0.0206  0.0070 -0.0012
                                         0.0620 -0.0221  0.0005 -0.0042  0.0169
                                         0.0056 -0.2628 -0.0164  0.1212  0.1319
                                         0.3585  0.3600 -0.5131 -0.5500 -0.0951
                                        -0.0720  0.1708  0.1612
  58. (0.00019) RY*( 6) C  2             s( 20.72%)p 0.24(  4.90%)d 3.59( 74.39%)
                                         0.0000  0.0112  0.3397  0.3027  0.0182
                                        -0.1402  0.0491 -0.0094  0.1541 -0.0400
                                         0.0042 -0.0326  0.0070 -0.4201 -0.3546
                                        -0.1031  0.2614 -0.1087 -0.0566  0.0265
                                         0.3726  0.2328 -0.3923
  59. (0.00015) RY*( 7) C  2             s(  7.37%)p 2.30( 16.91%)d10.28( 75.72%)
                                         0.0000  0.0024 -0.0178  0.2708  0.0074
                                         0.0160  0.3297  0.0035 -0.2186  0.0746
                                         0.0012 -0.0111  0.0814 -0.4107 -0.0508
                                         0.0395 -0.0969 -0.0931 -0.0316  0.0533
                                        -0.7324 -0.0617 -0.1492
  60. (0.00008) RY*( 8) C  2             s(  8.60%)p 0.85(  7.29%)d 9.79( 84.11%)
  61. (0.00005) RY*( 9) C  2             s(  8.82%)p 2.92( 25.73%)d 7.42( 65.45%)
  62. (0.00001) RY*(10) C  2             s(  5.51%)p 0.95(  5.24%)d16.20( 89.25%)
  63. (0.00001) RY*(11) C  2             s(  0.87%)p 5.79(  5.05%)d99.99( 94.07%)
  64. (0.00002) RY*(12) C  2             s(  0.56%)p93.14( 52.59%)d82.95( 46.84%)
  65. (0.00000) RY*(13) C  2             s( 66.72%)p 0.04(  2.61%)d 0.46( 30.67%)
  66. (0.00000) RY*(14) C  2             s(  0.11%)p10.64(  1.12%)d99.99( 98.77%)
  67. (0.00000) RY*(15) C  2             s(  0.09%)p99.99( 98.91%)d11.03(  1.00%)
  68. (0.00000) RY*(16) C  2             s(  0.46%)p99.99( 86.34%)d28.45( 13.20%)
  69. (0.00001) RY*(17) C  2             s(  0.68%)p18.89( 12.81%)d99.99( 86.52%)
  70. (0.00000) RY*(18) C  2             s(  0.49%)p 5.13(  2.49%)d99.99( 97.03%)
  71. (0.00589) RY*( 1) C  3             s(  0.14%)p99.99( 84.20%)d99.99( 15.66%)
                                        -0.0000 -0.0120  0.0342  0.0111  0.0055
                                        -0.4535 -0.0362  0.0351  0.7866  0.0511
                                         0.0015 -0.1107 -0.0135  0.0132  0.0199
                                         0.0637 -0.0997  0.0046  0.0107  0.2893
                                        -0.2291  0.0248  0.0715
  72. (0.00313) RY*( 2) C  3             s(  1.96%)p45.48( 89.02%)d 4.61(  9.03%)
                                        -0.0000 -0.0095  0.1395  0.0031  0.0442
                                        -0.7970 -0.1143  0.0088 -0.4747  0.0308
                                         0.0148 -0.1031 -0.0520 -0.1698  0.1979
                                        -0.0742  0.0386 -0.0680  0.0608 -0.0167
                                        -0.0252 -0.0400 -0.0668
  73. (0.00280) RY*( 3) C  3             s(  0.03%)p99.99( 53.59%)d99.99( 46.38%)
                                         0.0000 -0.0005  0.0007  0.0159  0.0131
                                         0.0725 -0.0742  0.0009 -0.0729  0.0013
                                        -0.0255 -0.7043  0.1515 -0.0733  0.0455
                                         0.5698 -0.0403  0.2116 -0.0820 -0.1312
                                        -0.0063  0.2469  0.0183
  74. (0.00077) RY*( 4) C  3             s( 69.46%)p 0.16( 10.91%)d 0.28( 19.63%)
                                        -0.0000 -0.0137  0.8283 -0.0910  0.0033
                                         0.1929  0.0487  0.0301  0.0617  0.0053
                                         0.0005 -0.2542 -0.0122  0.0708  0.0915
                                        -0.2123  0.0403  0.0259  0.0517  0.1404
                                         0.0801 -0.1444 -0.2931
  75. (0.00068) RY*( 5) C  3             s( 15.82%)p 2.20( 34.81%)d 3.12( 49.37%)
                                        -0.0000 -0.0051  0.3912 -0.0716  0.0004
                                        -0.0871  0.0076  0.0133  0.0191  0.0238
                                        -0.0000  0.5816  0.0328  0.0411  0.0012
                                         0.6051  0.2082 -0.0093 -0.0829 -0.1148
                                        -0.0345  0.2459 -0.0283
  76. (0.00026) RY*( 6) C  3             s(  6.97%)p 1.27(  8.82%)d12.09( 84.21%)
                                         0.0000  0.0068  0.2090 -0.1611 -0.0125
                                        -0.0018 -0.2349 -0.0010 -0.0498  0.1490
                                        -0.0059 -0.0538  0.0725 -0.1975 -0.6591
                                        -0.1920  0.0235  0.0008 -0.0281 -0.2682
                                        -0.4433  0.0542  0.2432
  77. (0.00020) RY*( 7) C  3             s(  2.53%)p 3.07(  7.78%)d35.42( 89.69%)
                                        -0.0000 -0.0056  0.0696  0.1430  0.0411
                                        -0.1962  0.0623  0.0172 -0.1202  0.0480
                                         0.0072 -0.0673  0.1098  0.7825 -0.2711
                                         0.0105  0.0845  0.2030 -0.0059  0.0638
[...]
                           0.032%  C 10 s( 17.56%)p 4.58( 80.40%)d 0.12(  2.05%)
                           0.042%  H 11 s( 95.61%)p 0.05(  4.39%)
                          37.608%  H 12 s( 99.83%)p 0.00(  0.17%)
                           0.042%  H 13 s( 96.39%)p 0.04(  3.61%)
   8. (2.00000)  99.2534%  BD ( 1) C  3- N  4       
                           0.173%  C  2 s(  1.93%)p46.62( 89.90%)d 4.24(  8.17%)
                          35.940%  C  3 s( 26.48%)p 2.77( 73.34%)d 0.01(  0.19%)
                          63.387%  N  4 s( 32.88%)p 2.04( 67.05%)d 0.00(  0.07%)
                           0.169%  B  5 s( 18.63%)p 3.37( 62.75%)d 1.00( 18.63%)
                           0.061%  C  7 s(  4.75%)p12.50( 59.41%)d 7.54( 35.84%)
                           0.132%  C 10 s(  2.23%)p24.87( 55.42%)d19.01( 42.35%)
                           0.078%  H 12 s( 94.37%)p 0.06(  5.63%)
                           0.017%  H 13 s( 10.07%)p 8.93( 89.93%)
   9. (2.00000)  99.1139%  BD ( 1) C  3- H 13       
                           0.152%  C  1 s( 33.94%)p 1.90( 64.43%)d 0.05(  1.64%)
                           0.209%  C  2 s(  1.07%)p90.18( 96.52%)d 2.25(  2.41%)
                          60.907%  C  3 s( 30.01%)p 2.33( 69.91%)d 0.00(  0.08%)
                           0.122%  N  4 s(  8.11%)p10.39( 84.23%)d 0.94(  7.66%)
                           0.281%  B  5 s( 23.22%)p 3.29( 76.49%)d 0.01(  0.28%)
                           0.036%  C 10 s( 43.74%)p 1.00( 43.52%)d 0.29( 12.74%)
                           0.030%  H 12 s( 96.06%)p 0.04(  3.94%)
                          38.230%  H 13 s( 99.84%)p 0.00(  0.16%)
  10. (2.00000)  98.0204%  BD ( 1) N  4- B  5       
                           0.021%  C  1 s( 34.21%)p 1.53( 52.38%)d 0.39( 13.41%)
                           0.027%  C  2 s( 63.68%)p 0.50( 32.06%)d 0.07(  4.26%)
                           0.490%  C  3 s(  2.65%)p34.73( 92.15%)d 1.96(  5.20%)
                          78.908%  N  4 s( 32.70%)p 2.05( 67.19%)d 0.00(  0.10%)
                          19.284%  B  5 s( 23.32%)p 3.27( 76.17%)d 0.02(  0.51%)
                           0.178%  C  6 s(  8.37%)p 9.73( 81.46%)d 1.21( 10.16%)
                           0.113%  C  7 s( 38.12%)p 0.90( 34.13%)d 0.73( 27.74%)
                           0.018%  C  8 s( 42.87%)p 1.26( 54.19%)d 0.07(  2.94%)
                           0.040%  C  9 s( 32.53%)p 2.04( 66.38%)d 0.03(  1.09%)
                           0.357%  C 10 s(  0.22%)p99.99( 84.53%)d70.54( 15.25%)
                           0.231%  H 13 s( 99.76%)p 0.00(  0.24%)
                           0.152%  H 14 s( 97.12%)p 0.03(  2.88%)
                           0.066%  H 15 s( 94.36%)p 0.06(  5.64%)
                           0.098%  H 18 s( 98.75%)p 0.01(  1.25%)
  11. (2.00000)  86.5784%  BD ( 2) N  4- B  5       
                           1.501%  C  1 s(  0.00%)p 1.00( 99.67%)d 0.00(  0.33%)
                           2.607%  C  2 s(  0.00%)p 1.00( 99.85%)d 0.00(  0.15%)
                           6.230%  C  3 s(  0.00%)p 1.00( 98.95%)d 0.01(  1.05%)
                          75.306%  N  4 s(  0.05%)p99.99( 99.93%)d 0.44(  0.02%)
                          11.296%  B  5 s(  0.01%)p 1.00( 99.68%)d 0.00(  0.31%)
                           1.432%  C  6 s(  0.02%)p99.99( 99.55%)d18.90(  0.42%)
                           0.204%  C  7 s(  6.16%)p14.30( 88.15%)d 0.92(  5.69%)
                           0.166%  C  8 s( 20.73%)p 3.74( 77.44%)d 0.09(  1.83%)
                           0.385%  C  9 s( 32.62%)p 2.03( 66.23%)d 0.04(  1.16%)
                           0.559%  C 10 s(  1.31%)p67.59( 88.71%)d 7.60(  9.97%)
                           0.064%  H 15 s( 98.05%)p 0.02(  1.95%)
                           0.237%  H 18 s( 97.11%)p 0.03(  2.89%)
  12. (2.00000)  98.9473%  BD ( 1) N  4- C 10       
                           0.014%  C  1 s( 51.87%)p 0.76( 39.23%)d 0.17(  8.91%)
                           0.080%  C  2 s( 31.86%)p 2.01( 64.05%)d 0.13(  4.09%)
                           0.180%  C  3 s(  2.60%)p32.52( 84.57%)d 4.93( 12.83%)
                          63.542%  N  4 s( 25.34%)p 2.94( 74.58%)d 0.00(  0.08%)
                           0.219%  B  5 s(  3.49%)p25.53( 88.98%)d 2.16(  7.54%)
                           0.050%  C  6 s( 28.28%)p 2.29( 64.64%)d 0.25(  7.08%)
                           0.061%  C  7 s(  9.00%)p 6.56( 58.99%)d 3.56( 32.01%)
                           0.154%  C  8 s(  3.27%)p28.89( 94.52%)d 0.67(  2.21%)
                           0.158%  C  9 s(  0.93%)p99.17( 92.26%)d 7.32(  6.81%)
                          35.445%  C 10 s( 21.06%)p 3.74( 78.72%)d 0.01(  0.22%)
                           0.046%  H 13 s( 94.08%)p 0.06(  5.92%)
                           0.017%  H 15 s( 91.29%)p 0.10(  8.71%)
                           0.013%  H 16 s( 98.58%)p 0.01(  1.42%)
  13. (2.00000)  98.6292%  BD ( 1) B  5- C  6       
                           0.448%  C  1 s(  0.25%)p99.99( 96.54%)d12.84(  3.21%)
                           0.019%  C  2 s( 39.29%)p 1.40( 54.84%)d 0.15(  5.88%)
                           0.067%  N  4 s( 14.79%)p 5.06( 74.87%)d 0.70( 10.35%)
                          32.493%  B  5 s( 39.97%)p 1.50( 59.93%)d 0.00(  0.11%)
                          66.274%  C  6 s( 34.49%)p 1.89( 65.34%)d 0.00(  0.17%)
                           0.075%  C  7 s( 43.72%)p 1.04( 45.63%)d 0.24( 10.64%)
                           0.034%  C  8 s( 20.55%)p 3.63( 74.66%)d 0.23(  4.79%)
                           0.019%  C  9 s( 20.93%)p 3.42( 71.57%)d 0.36(  7.49%)
                           0.102%  C 10 s( 40.50%)p 1.32( 53.50%)d 0.15(  6.00%)
                           0.302%  H 11 s( 97.66%)p 0.02(  2.34%)
                           0.128%  H 14 s( 58.19%)p 0.72( 41.81%)
                           0.013%  H 15 s( 85.53%)p 0.17( 14.47%)
                           0.014%  H 18 s( 84.97%)p 0.18( 15.03%)
  14. (2.00000)  97.4294%  BD ( 1) B  5- C  7       
                           0.099%  C  1 s( 41.77%)p 1.16( 48.51%)d 0.23(  9.71%)
                           0.021%  C  2 s( 60.27%)p 0.39( 23.54%)d 0.27( 16.19%)
                           0.273%  C  3 s( 32.10%)p 2.09( 67.06%)d 0.03(  0.85%)
                           0.199%  N  4 s( 49.71%)p 0.89( 44.44%)d 0.12(  5.85%)
                          30.662%  B  5 s( 34.14%)p 1.92( 65.71%)d 0.00(  0.14%)
                           0.165%  C  6 s( 43.88%)p 0.97( 42.63%)d 0.31( 13.49%)
                          66.856%  C  7 s( 26.68%)p 2.74( 73.07%)d 0.01(  0.24%)
                           0.663%  C  8 s(  1.54%)p62.23( 95.57%)d 1.89(  2.90%)
                           0.644%  C  9 s(  1.99%)p48.70( 96.95%)d 0.53(  1.06%)
                           0.160%  C 10 s(  6.68%)p11.24( 75.09%)d 2.73( 18.23%)
                           0.013%  H 11 s( 97.67%)p 0.02(  2.33%)
                           0.026%  H 14 s( 92.86%)p 0.08(  7.14%)
                           0.087%  H 15 s( 56.46%)p 0.77( 43.54%)
                           0.027%  H 17 s( 95.84%)p 0.04(  4.16%)
                           0.095%  H 18 s( 98.92%)p 0.01(  1.08%)
  15. (2.00000)  99.0034%  BD ( 1) C  6- H 14       
                           0.318%  C  1 s(  1.36%)p70.22( 95.60%)d 2.23(  3.04%)
                           0.215%  C  2 s( 41.61%)p 1.37( 57.08%)d 0.03(  1.30%)
                           0.014%  C  3 s( 29.33%)p 2.22( 65.17%)d 0.19(  5.49%)
                           0.032%  N  4 s( 40.59%)p 1.43( 57.86%)d 0.04(  1.55%)
                           0.230%  B  5 s(  2.38%)p36.66( 87.44%)d 4.27( 10.17%)
                          61.601%  C  6 s( 25.33%)p 2.94( 74.59%)d 0.00(  0.07%)
                           0.013%  C  7 s( 18.83%)p 3.54( 66.61%)d 0.77( 14.56%)
                           0.014%  C 10 s( 25.63%)p 2.56( 65.72%)d 0.34(  8.65%)
                           0.088%  H 11 s( 98.73%)p 0.01(  1.27%)
                           0.010%  H 12 s( 90.64%)p 0.10(  9.36%)
                          37.453%  H 14 s( 99.86%)p 0.00(  0.14%)
  16. (2.00000)  98.3987%  BD ( 1) C  7- C  8       
                           0.020%  C  1 s(  3.83%)p24.10( 92.37%)d 0.99(  3.80%)
                           0.020%  C  2 s(  2.13%)p45.61( 97.04%)d 0.39(  0.83%)
                           0.024%  C  3 s( 43.35%)p 1.25( 54.20%)d 0.06(  2.45%)
                           0.084%  N  4 s(  7.80%)p11.13( 86.80%)d 0.69(  5.40%)
                           0.396%  B  5 s(  0.76%)p99.99( 92.37%)d 9.09(  6.88%)
                           0.031%  C  6 s( 12.05%)p 6.66( 80.26%)d 0.64(  7.69%)
                          50.384%  C  7 s( 22.57%)p 3.42( 77.16%)d 0.01(  0.27%)
                          48.083%  C  8 s( 27.73%)p 2.60( 72.06%)d 0.01(  0.21%)
                           0.312%  C  9 s(  6.47%)p13.67( 88.41%)d 0.79(  5.12%)
                           0.125%  C 10 s( 15.74%)p 4.34( 68.33%)d 1.01( 15.93%)
                           0.040%  H 15 s( 31.80%)p 2.14( 68.20%)
                           0.029%  H 16 s( 10.87%)p 8.20( 89.13%)
                           0.361%  H 17 s( 99.45%)p 0.01(  0.55%)
                           0.087%  H 18 s( 99.54%)p 0.00(  0.46%)
  17. (2.00000)  97.4783%  BD ( 1) C  7- C 10       
                           0.017%  C  2 s(  9.52%)p 9.40( 89.49%)d 0.10(  0.99%)
                           0.333%  C  3 s( 36.89%)p 1.68( 62.15%)d 0.03(  0.96%)
                           0.239%  N  4 s( 39.11%)p 1.27( 49.48%)d 0.29( 11.41%)
                           0.399%  B  5 s( 10.56%)p 7.94( 83.85%)d 0.53(  5.59%)
                           0.161%  C  6 s( 43.11%)p 1.27( 54.55%)d 0.05(  2.33%)
                          47.856%  C  7 s( 16.10%)p 5.18( 83.50%)d 0.02(  0.40%)
                           0.293%  C  8 s( 16.38%)p 4.58( 75.04%)d 0.52(  8.58%)
                           0.286%  C  9 s( 18.00%)p 4.13( 74.36%)d 0.42(  7.65%)
                          49.702%  C 10 s( 19.93%)p 4.00( 79.74%)d 0.02(  0.33%)
                           0.017%  H 15 s( 20.93%)p 3.78( 79.07%)
                           0.338%  H 16 s( 99.78%)p 0.00(  0.22%)
                           0.319%  H 17 s( 99.60%)p 0.00(  0.40%)
                           0.021%  H 18 s( 45.01%)p 1.22( 54.99%)
  18. (2.00000)  98.8128%  BD ( 1) C  7- H 15       
                           0.016%  C  1 s(  6.36%)p13.66( 86.83%)d 1.07(  6.81%)
                           0.014%  C  2 s(  7.54%)p12.07( 91.02%)d 0.19(  1.43%)
                           0.028%  C  3 s( 40.41%)p 1.43( 57.94%)d 0.04(  1.65%)
                           0.062%  N  4 s( 14.45%)p 5.34( 77.23%)d 0.58(  8.32%)
                           0.327%  B  5 s(  5.10%)p17.49( 89.15%)d 1.13(  5.76%)
                           0.025%  C  6 s( 15.00%)p 5.31( 79.65%)d 0.36(  5.35%)
                          62.244%  C  7 s( 26.10%)p 2.83( 73.81%)d 0.00(  0.08%)
                           0.306%  C  8 s(  0.35%)p99.99( 96.19%)d10.00(  3.47%)
                           0.301%  C  9 s(  6.54%)p13.98( 91.38%)d 0.32(  2.08%)
                           0.051%  C 10 s(  4.16%)p13.95( 58.04%)d 9.09( 37.80%)
                          36.575%  H 15 s( 99.84%)p 0.00(  0.16%)
                           0.029%  H 17 s( 98.58%)p 0.01(  1.42%)
                           0.014%  H 18 s( 91.07%)p 0.10(  8.93%)
  19. (2.00000)  99.1224%  BD ( 1) C  8- C  9       
                           0.035%  N  4 s( 25.79%)p 2.68( 69.23%)d 0.19(  4.98%)
                           0.053%  B  5 s( 27.27%)p 2.16( 58.92%)d 0.51( 13.82%)
                           0.168%  C  7 s(  7.24%)p 9.55( 69.11%)d 3.27( 23.65%)
                          49.578%  C  8 s( 32.94%)p 2.03( 66.82%)d 0.01(  0.23%)
                          49.666%  C  9 s( 33.10%)p 2.01( 66.67%)d 0.01(  0.23%)
                           0.203%  C 10 s(  8.64%)p 8.32( 71.82%)d 2.26( 19.54%)
                           0.068%  H 15 s( 97.81%)p 0.02(  2.19%)
                           0.062%  H 16 s( 42.79%)p 1.34( 57.21%)
                           0.068%  H 17 s( 51.99%)p 0.92( 48.01%)
                           0.085%  H 18 s( 98.73%)p 0.01(  1.27%)
  20. (2.00000)  96.9604%  BD ( 2) C  8- C  9       
                           0.026%  C  2 s(  9.97%)p 8.98( 89.48%)d 0.06(  0.56%)
                           0.030%  C  3 s(  1.31%)p70.47( 92.41%)d 4.79(  6.28%)
                           0.510%  N  4 s( 41.02%)p 1.42( 58.40%)d 0.01(  0.59%)
                           0.388%  B  5 s( 20.01%)p 3.79( 75.87%)d 0.21(  4.13%)
                           0.043%  C  6 s(  6.73%)p13.66( 91.95%)d 0.20(  1.32%)
                           0.318%  C  7 s(  1.81%)p47.91( 86.96%)d 6.19( 11.23%)
                          46.066%  C  8 s(  0.03%)p99.99( 99.80%)d 6.96(  0.18%)
                          50.898%  C  9 s(  0.03%)p99.99( 99.81%)d 4.50(  0.15%)
                           1.108%  C 10 s(  4.84%)p18.74( 90.79%)d 0.90(  4.37%)
                           0.313%  H 15 s( 99.54%)p 0.00(  0.46%)
                           0.012%  H 16 s( 13.62%)p 6.34( 86.38%)
                           0.014%  H 17 s(  1.99%)p49.24( 98.01%)
                           0.254%  H 18 s( 98.50%)p 0.02(  1.50%)
  21. (2.00000)  99.6655%  BD ( 1) C  8- H 16       
                           0.020%  B  5 s(  6.51%)p11.96( 77.86%)d 2.40( 15.63%)
                           0.039%  C  7 s(  2.72%)p20.89( 56.88%)d14.84( 40.40%)
                          61.794%  C  8 s( 32.45%)p 2.08( 67.48%)d 0.00(  0.07%)
                           0.106%  C  9 s(  2.48%)p36.14( 89.71%)d 3.15(  7.81%)
                           0.097%  C 10 s( 48.12%)p 0.87( 42.02%)d 0.20(  9.86%)
                          37.894%  H 16 s( 99.84%)p 0.00(  0.16%)
                           0.023%  H 18 s( 99.27%)p 0.01(  0.73%)
  22. (2.00000)  98.5383%  BD ( 1) C  9- C 10       
                           0.031%  C  1 s(  0.30%)p99.99( 99.40%)d 0.97(  0.29%)
                           0.014%  C  2 s(  1.99%)p48.42( 96.55%)d 0.73(  1.46%)
                           0.103%  C  3 s(  0.06%)p99.99( 97.67%)d39.50(  2.28%)
                           0.168%  N  4 s(  6.70%)p12.89( 86.37%)d 1.03(  6.93%)
                           0.142%  B  5 s( 12.37%)p 6.11( 75.55%)d 0.98( 12.09%)
                           0.018%  C  6 s(  2.59%)p36.46( 94.27%)d 1.22(  3.14%)
                           0.114%  C  7 s( 15.82%)p 4.32( 68.42%)d 1.00( 15.76%)
                           0.333%  C  8 s(  4.62%)p19.46( 89.93%)d 1.18(  5.45%)
                          47.652%  C  9 s( 26.42%)p 2.78( 73.34%)d 0.01(  0.25%)
                          50.944%  C 10 s( 26.32%)p 2.79( 73.46%)d 0.01(  0.22%)
                           0.057%  H 15 s( 98.85%)p 0.01(  1.15%)
                           0.362%  H 16 s( 99.50%)p 0.01(  0.50%)
                           0.031%  H 17 s( 12.65%)p 6.91( 87.35%)
                           0.027%  H 18 s( 21.57%)p 3.64( 78.43%)
  23. (2.00000)  99.6310%  BD ( 1) C  9- H 17       
                           0.011%  N  4 s(  3.39%)p27.06( 91.78%)d 1.43(  4.83%)
                           0.029%  B  5 s(  3.42%)p27.07( 92.46%)d 1.21(  4.13%)
                           0.086%  C  7 s( 43.72%)p 1.08( 47.43%)d 0.20(  8.85%)
                           0.125%  C  8 s(  2.59%)p34.74( 90.13%)d 2.80(  7.28%)
                          61.823%  C  9 s( 33.23%)p 2.01( 66.70%)d 0.00(  0.07%)
                           0.049%  C 10 s(  1.72%)p38.60( 66.38%)d18.55( 31.90%)
                           0.016%  H 15 s( 98.33%)p 0.02(  1.67%)
                          37.840%  H 17 s( 99.84%)p 0.00(  0.16%)
  24. (2.00000)  99.0925%  BD ( 1) C 10- H 18       
                           0.021%  C  1 s(  2.80%)p34.57( 96.91%)d 0.10(  0.29%)
                           0.067%  C  3 s(  1.45%)p65.45( 94.72%)d 2.65(  3.83%)
                           0.115%  N  4 s( 18.86%)p 3.93( 74.18%)d 0.37(  6.96%)
                           0.175%  B  5 s( 17.13%)p 4.35( 74.57%)d 0.48(  8.30%)
                           0.010%  C  6 s( 12.65%)p 6.45( 81.52%)d 0.46(  5.84%)
                           0.067%  C  7 s(  1.80%)p37.50( 67.63%)d16.95( 30.57%)
                           0.197%  C  8 s(  7.15%)p12.39( 88.57%)d 0.60(  4.29%)
                           0.187%  C  9 s(  0.05%)p99.99( 93.01%)d99.99(  6.94%)
                          62.069%  C 10 s( 28.46%)p 2.51( 71.48%)d 0.00(  0.07%)
                           0.010%  H 13 s( 81.48%)p 0.23( 18.52%)
                           0.033%  H 16 s( 99.28%)p 0.01(  0.72%)
                          37.032%  H 18 s( 99.84%)p 0.00(  0.16%)
  25. (2.00000)  99.9521%  CR ( 1) C  1             
                          99.956%  C  1 s(100.00%)p 0.00(  0.00%)d 0.00(  0.00%)
                           0.014%  C  2 s( 19.42%)p 3.88( 75.39%)d 0.27(  5.19%)
                           0.017%  C  6 s( 14.23%)p 5.68( 80.80%)d 0.35(  4.97%)
  26. (2.00000)  99.9506%  CR ( 1) C  2             
                           0.017%  C  1 s( 17.66%)p 4.40( 77.69%)d 0.26(  4.65%)
                          99.954%  C  2 s(100.00%)p 0.00(  0.00%)d 0.00(  0.00%)
                           0.017%  C  3 s( 18.37%)p 4.20( 77.09%)d 0.25(  4.53%)
  27. (2.00000)  99.9480%  CR ( 1) C  3             
                           0.020%  C  2 s( 16.31%)p 4.92( 80.27%)d 0.21(  3.43%)
                          99.952%  C  3 s(100.00%)p 0.00(  0.00%)d 0.00(  0.00%)
                           0.011%  N  4 s( 31.48%)p 1.77( 55.66%)d 0.41( 12.86%)
  28. (2.00000)  99.9585%  CR ( 1) N  4             
                           0.013%  C  3 s( 16.77%)p 4.55( 76.24%)d 0.42(  7.00%)
                          99.963%  N  4 s(100.00%)p 0.00(  0.00%)d 0.00(  0.00%)
                           0.012%  B  5 s( 17.60%)p 4.44( 78.06%)d 0.25(  4.34%)
                           0.010%  C 10 s( 13.13%)p 6.08( 79.87%)d 0.53(  7.00%)
  29. (2.00000)  99.9467%  CR ( 1) B  5             
                          99.949%  B  5 s(100.00%)p 0.00(  0.00%)d 0.00(  0.00%)
                           0.010%  C  6 s( 20.69%)p 3.13( 64.73%)d 0.70( 14.57%)
  30. (2.00000)  99.9433%  CR ( 1) C  6             
                           0.018%  C  1 s( 18.69%)p 4.10( 76.72%)d 0.25(  4.59%)
                           0.021%  B  5 s( 12.93%)p 6.54( 84.58%)d 0.19(  2.49%)
                          99.949%  C  6 s( 99.99%)p 0.00(  0.00%)d 0.00(  0.00%)
  31. (2.00000)  99.9506%  CR ( 1) C  7             
                           0.014%  B  5 s( 12.33%)p 6.86( 84.55%)d 0.25(  3.13%)
                          99.958%  C  7 s( 99.99%)p 0.00(  0.01%)d 0.00(  0.00%)
  32. (2.00000)  99.9443%  CR ( 1) C  8             
                           0.012%  C  7 s( 10.60%)p 7.75( 82.14%)d 0.68(  7.26%)
                          99.953%  C  8 s( 99.99%)p 0.00(  0.01%)d 0.00(  0.00%)
                           0.021%  C  9 s( 14.57%)p 5.52( 80.37%)d 0.35(  5.06%)
  33. (2.00000)  99.9422%  CR ( 1) C  9             
                           0.023%  C  8 s( 13.59%)p 6.02( 81.78%)d 0.34(  4.63%)
                          99.951%  C  9 s( 99.99%)p 0.00(  0.01%)d 0.00(  0.00%)
                           0.013%  C 10 s( 11.84%)p 6.80( 80.52%)d 0.65(  7.64%)
  34. (2.00000)  99.9557%  CR ( 1) C 10             
                          99.962%  C 10 s( 99.99%)p 0.00(  0.01%)d 0.00(  0.00%)

 *******************************************************************************
Grid information in Angstroms:
 x:        101  min =  -6.000000 max =   6.000000
 y:        101  min =  -6.000000 max =   6.000000
 z:         68  min =  -4.000000 max =   4.000000
 Plotting NBOs for the following states:  0
 Range of NBOs for each state:  11
 Created directory /scratch/483088/qchem2569232/plots
 Total job time:  69.83s(wall), 533.51s(cpu) 
 Wed Jun 17 18:25:16 2026

        *************************************************************
        *                                                           *
        *  Thank you very much for using Q-Chem.  Have a nice day.  *
        *                                                           *
        *************************************************************


