 Entering Gaussian System, Link 0=g16
 Initial command:
 /local/gaussian-16.A03/g16/l1.exe "/scratch/3071535/NICS_perpendicular/Gau-36247.inp" -scrdir="/scratch/3071535/NICS_perpendicular/"
 Default CPUs for threads: 0-9,14-23,28-37,42-51
 Default is to use a total of  40 processors:
                               40 via shared-memory
                                1 via Linda
 Entering Link 1 = /local/gaussian-16.A03/g16/l1.exe PID=     36249.
  
 Copyright (c) 1988,1990,1992,1993,1995,1998,2003,2009,2016,
            Gaussian, Inc.  All Rights Reserved.
  
 This is part of the Gaussian(R) 16 program.  It is based on
 the Gaussian(R) 09 system (copyright 2009, Gaussian, Inc.),
 the Gaussian(R) 03 system (copyright 2003, Gaussian, Inc.),
 the Gaussian(R) 98 system (copyright 1998, Gaussian, Inc.),
 the Gaussian(R) 94 system (copyright 1995, Gaussian, Inc.),
 the Gaussian 92(TM) system (copyright 1992, Gaussian, Inc.),
 the Gaussian 90(TM) system (copyright 1990, Gaussian, Inc.),
 the Gaussian 88(TM) system (copyright 1988, Gaussian, Inc.),
 the Gaussian 86(TM) system (copyright 1986, Carnegie Mellon
 University), and the Gaussian 82(TM) system (copyright 1983,
 Carnegie Mellon University). Gaussian is a federally registered
 trademark of Gaussian, Inc.
  
 This software contains proprietary and confidential information,
 including trade secrets, belonging to Gaussian, Inc.
  
 This software is provided under written license and may be
 used, copied, transmitted, or stored only in accord with that
 written license.
  
 The following legend is applicable only to US Government
 contracts under FAR:
  
                    RESTRICTED RIGHTS LEGEND
  
 Use, reproduction and disclosure by the US Government is
 subject to restrictions as set forth in subparagraphs (a)
 and (c) of the Commercial Computer Software - Restricted
 Rights clause in FAR 52.227-19.
  
 Gaussian, Inc.
 340 Quinnipiac St., Bldg. 40, Wallingford CT 06492
  
  
 ---------------------------------------------------------------
 Warning -- This program may not be used in any manner that
 competes with the business of Gaussian, Inc. or will provide
 assistance to any competitor of Gaussian, Inc.  The licensee
 of this program is prohibited from giving any competitor of
 Gaussian, Inc. access to this program.  By using this program,
 the user acknowledges that Gaussian, Inc. is engaged in the
 business of creating and licensing software in the field of
 computational chemistry and represents and warrants to the
 licensee that it is not a competitor of Gaussian, Inc. and that
 it will not use this program in any manner prohibited above.
 ---------------------------------------------------------------
  

 Cite this work as:
 Gaussian 16, Revision A.03,
 M. J. Frisch, G. W. Trucks, H. B. Schlegel, G. E. Scuseria, 
 M. A. Robb, J. R. Cheeseman, G. Scalmani, V. Barone, 
 G. A. Petersson, H. Nakatsuji, X. Li, M. Caricato, A. V. Marenich, 
 J. Bloino, B. G. Janesko, R. Gomperts, B. Mennucci, H. P. Hratchian, 
 J. V. Ortiz, A. F. Izmaylov, J. L. Sonnenberg, D. Williams-Young, 
 F. Ding, F. Lipparini, F. Egidi, J. Goings, B. Peng, A. Petrone, 
 T. Henderson, D. Ranasinghe, V. G. Zakrzewski, J. Gao, N. Rega, 
 G. Zheng, W. Liang, M. Hada, M. Ehara, K. Toyota, R. Fukuda, 
 J. Hasegawa, M. Ishida, T. Nakajima, Y. Honda, O. Kitao, H. Nakai, 
 T. Vreven, K. Throssell, J. A. Montgomery, Jr., J. E. Peralta, 
 F. Ogliaro, M. J. Bearpark, J. J. Heyd, E. N. Brothers, K. N. Kudin, 
 V. N. Staroverov, T. A. Keith, R. Kobayashi, J. Normand, 
 K. Raghavachari, A. P. Rendell, J. C. Burant, S. S. Iyengar, 
 J. Tomasi, M. Cossi, J. M. Millam, M. Klene, C. Adamo, R. Cammi, 
 J. W. Ochterski, R. L. Martin, K. Morokuma, O. Farkas, 
 J. B. Foresman, and D. J. Fox, Gaussian, Inc., Wallingford CT, 2016.
 
 ******************************************
 Gaussian 16:  ES64L-G16RevA.03 25-Dec-2016
                20-Nov-2025 
 ******************************************
 %nprocshared=40
 Will use up to   40 processors via shared memory.
 %mem=90gb
 %chk=planar_alignedXY_NICS.chk
 -----------------------------------------------
 #p nmr=giao wb97x/aug-cc-pvdz nosymm guess=save
 -----------------------------------------------
 1/38=1,172=1/1;
 2/12=2,15=1,17=6,18=5,40=1/2;
 3/5=16,7=10,11=2,25=1,30=1,74=-57/1,2,3,8;
 4//1;
 5/5=2,38=5/2;
 8/6=1,10=90,11=11/1;
 10/13=100,31=1,45=16/2;
 6/7=2,8=2,9=2,10=2,28=1/1;
 99/9=1/99;
 Leave Link    1 at Thu Nov 20 14:58:09 2025, MaxMem= 12079595520 cpu:               4.1 elap:               0.1
 (Enter /local/gaussian-16.A03/g16/l101.exe)
 --------------------------
 File Created by py.Aroma 5
 --------------------------
 Symbolic Z-matrix:
 Charge =  0 Multiplicity = 1
 C                     2.4354   -0.68942  -0.0003 
 C                     2.42376   0.72894  -0.00009 
 C                     1.23339   1.41075   0.00004 
 C                    -0.00581   0.71149   0.00004 
 C                     0.0058   -0.71064   0.00004 
 C                     1.25595  -1.39018  -0.00016 
 C                    -1.23309  -1.41051  -0.00003 
 C                    -2.42382  -0.72911   0.00009 
 C                    -2.43534   0.68926   0.0003 
 C                    -1.25625   1.39041   0.00017 
 H                     3.38735  -1.22144  -0.00053 
 H                     3.36726   1.27588  -0.00021 
 H                     1.22135   2.502     0.00027 
 H                     1.26215  -2.48147  -0.00037 
 H                    -1.22141  -2.50175  -0.00029 
 H                    -3.36696  -1.27661   0.00019 
 H                    -3.38765   1.2207    0.0005 
 H                    -1.26208   2.48171   0.00036 
 Bq                    1.22465   0.01023  -1.00007 
 Bq                    1.22484   0.01009   0.99993 
 Bq                   -1.22469  -0.00992   1.0001 
 Bq                   -1.22482  -0.00978  -0.9999 
 Bq                   0.         0.00008   0.00001 
 Bq                    1.22475   0.01016  -0.00007 
 Bq                   -1.22475  -0.00985   0.0001 
 
 ITRead=  0  0  0  0  0  0  0  0  0  0  0  0  0  0  0  0  0  0  0  0
 ITRead=  0  0  0  0  0
 MicOpt= -1 -1 -1 -1 -1 -1 -1 -1 -1 -1 -1 -1 -1 -1 -1 -1 -1 -1 -1 -1
 MicOpt= -1 -1 -1 -1 -1
 NAtoms=     25 NQM=       25 NQMF=       0 NMMI=      0 NMMIF=      0
                NMic=       0 NMicF=      0.
                    Isotopes and Nuclear Properties:
 (Nuclear quadrupole moments (NQMom) in fm**2, nuclear magnetic moments (NMagM)
  in nuclear magnetons)

  Atom         1           2           3           4           5           6           7           8           9          10
 IAtWgt=          12          12          12          12          12          12          12          12          12          12
 AtmWgt=  12.0000000  12.0000000  12.0000000  12.0000000  12.0000000  12.0000000  12.0000000  12.0000000  12.0000000  12.0000000
 NucSpn=           0           0           0           0           0           0           0           0           0           0
 AtZEff=  -0.0000000  -0.0000000  -0.0000000  -0.0000000  -0.0000000  -0.0000000  -0.0000000  -0.0000000  -0.0000000  -0.0000000
 NQMom=    0.0000000   0.0000000   0.0000000   0.0000000   0.0000000   0.0000000   0.0000000   0.0000000   0.0000000   0.0000000
 NMagM=    0.0000000   0.0000000   0.0000000   0.0000000   0.0000000   0.0000000   0.0000000   0.0000000   0.0000000   0.0000000
 AtZNuc=   6.0000000   6.0000000   6.0000000   6.0000000   6.0000000   6.0000000   6.0000000   6.0000000   6.0000000   6.0000000

  Atom        11          12          13          14          15          16          17          18          19          20
 IAtWgt=           1           1           1           1           1           1           1           1           0           0
 AtmWgt=   1.0078250   1.0078250   1.0078250   1.0078250   1.0078250   1.0078250   1.0078250   1.0078250   0.0000000   0.0000000
 NucSpn=           1           1           1           1           1           1           1           1           0           0
 AtZEff=  -0.0000000  -0.0000000  -0.0000000  -0.0000000  -0.0000000  -0.0000000  -0.0000000  -0.0000000  -0.0000000  -0.0000000
 NQMom=    0.0000000   0.0000000   0.0000000   0.0000000   0.0000000   0.0000000   0.0000000   0.0000000   0.0000000   0.0000000
 NMagM=    2.7928460   2.7928460   2.7928460   2.7928460   2.7928460   2.7928460   2.7928460   2.7928460   0.0000000   0.0000000
 AtZNuc=   1.0000000   1.0000000   1.0000000   1.0000000   1.0000000   1.0000000   1.0000000   1.0000000   0.0000000   0.0000000

  Atom        21          22          23          24          25
 IAtWgt=           0           0           0           0           0
 AtmWgt=   0.0000000   0.0000000   0.0000000   0.0000000   0.0000000
 NucSpn=           0           0           0           0           0
 AtZEff=  -0.0000000  -0.0000000  -0.0000000  -0.0000000  -0.0000000
 NQMom=    0.0000000   0.0000000   0.0000000   0.0000000   0.0000000
 NMagM=    0.0000000   0.0000000   0.0000000   0.0000000   0.0000000
 AtZNuc=   0.0000000   0.0000000   0.0000000   0.0000000   0.0000000
 Leave Link  101 at Thu Nov 20 14:58:10 2025, MaxMem= 12079595520 cpu:              10.9 elap:               0.3
 (Enter /local/gaussian-16.A03/g16/l202.exe)
                          Input orientation:                          
 ---------------------------------------------------------------------
 Center     Atomic      Atomic             Coordinates (Angstroms)
 Number     Number       Type             X           Y           Z
 ---------------------------------------------------------------------
      1          6           0        2.435396   -0.689423   -0.000297
      2          6           0        2.423759    0.728940   -0.000092
      3          6           0        1.233390    1.410747    0.000035
      4          6           0       -0.005811    0.711485    0.000035
      5          6           0        0.005804   -0.710637    0.000035
      6          6           0        1.255946   -1.390177   -0.000159
      7          6           0       -1.233092   -1.410511   -0.000033
      8          6           0       -2.423815   -0.729105    0.000089
      9          6           0       -2.435341    0.689257    0.000299
     10          6           0       -1.256251    1.390405    0.000171
     11          1           0        3.387353   -1.221441   -0.000526
     12          1           0        3.367262    1.275875   -0.000214
     13          1           0        1.221350    2.502001    0.000272
     14          1           0        1.262147   -2.481468   -0.000373
     15          1           0       -1.221413   -2.501754   -0.000292
     16          1           0       -3.366958   -1.276610    0.000191
     17          1           0       -3.387645    1.220703    0.000499
     18          1           0       -1.262080    2.481712    0.000362
     19          0           0        1.224652    0.010225   -1.000074
     20          0           0        1.224842    0.010086    0.999926
     21          0           0       -1.224685   -0.009924    1.000099
     22          0           0       -1.224817   -0.009778   -0.999901
     23          0           0       -0.000001    0.000084    0.000007
     24          0           0        1.224747    0.010156   -0.000074
     25          0           0       -1.224751   -0.009851    0.000099
 ---------------------------------------------------------------------
                    Distance matrix (angstroms):
                    1          2          3          4          5
     1  C    0.000000
     2  C    1.418411   0.000000
     3  C    2.419821   1.371801   0.000000
     4  C    2.814611   2.429633   1.422880   0.000000
     5  C    2.429685   2.814052   2.450967   1.422169   0.000000
     6  C    1.371918   2.419596   2.801015   2.451329   1.422895
     7  C    3.738686   4.236722   3.747403   2.451344   1.422915
     8  C    4.859373   5.062101   4.237230   2.814612   2.429689
     9  C    5.062098   4.859262   3.739002   2.429632   2.814053
    10  C    4.237209   3.738985   2.489724   1.422861   2.450951
    11  H    1.090534   2.175431   3.401172   3.905095   3.419912
    12  H    2.175033   1.090567   2.138130   3.419965   3.904565
    13  H    3.414542   2.142320   1.091320   2.170685   3.434908
    14  H    2.141947   3.414098   3.892321   3.435501   2.171230
    15  H    4.081274   4.870797   4.618844   3.435490   2.171212
    16  H    5.831989   6.128184   5.327766   3.905103   3.419919
    17  H    6.128327   5.832173   4.624941   3.419957   3.904558
    18  H    4.871081   4.081375   2.715573   2.170695   3.434912
    19  Bq   1.719000   1.718829   1.720975   1.733789   1.733624
    20  Bq   1.719069   1.718775   1.720961   1.733854   1.733574
    21  Bq   3.854699   3.854536   3.010078   1.733843   1.733560
    22  Bq   3.854645   3.854534   3.010074   1.733802   1.733639
    23  Bq   2.531122   2.530977   1.873826   0.711425   0.710745
    24  Bq   1.398242   1.397956   1.400618   1.416381   1.416109
    25  Bq   3.722700   3.722558   2.839112   1.416383   1.416110
                    6          7          8          9         10
     6  C    0.000000
     7  C    2.489121   0.000000
     8  C    3.738671   1.371909   0.000000
     9  C    4.236702   2.419593   1.418409   0.000000
    10  C    3.747368   2.801012   2.419820   1.371810   0.000000
    11  H    2.138076   4.624312   5.831987   6.128175   5.327739
    12  H    3.400807   5.327281   6.128337   5.832180   4.624931
    13  H    3.892332   4.618662   4.871065   4.081351   2.715539
    14  H    1.091309   2.715358   4.081310   4.870823   4.618845
    15  H    2.715310   1.091306   2.141975   3.414114   3.892315
    16  H    4.624299   2.138063   1.090541   2.175441   3.401184
    17  H    5.327254   3.400792   2.175022   1.090558   2.138139
    18  H    4.618656   3.892331   3.414524   2.142297   1.091323
    19  Bq   1.721027   3.009830   3.854640   3.854527   3.010028
    20  Bq   1.721010   3.009893   3.854708   3.854538   3.010085
    21  Bq   3.009841   1.721040   1.719056   1.718762   1.720980
    22  Bq   3.009846   1.721005   1.719014   1.718842   1.720943
    23  Bq   1.873560   1.873577   2.531124   2.530976   1.873808
    24  Bq   1.400681   2.838885   3.722702   3.722556   2.839091
    25  Bq   2.838866   1.400685   1.398242   1.397956   1.400610
                   11         12         13         14         15
    11  H    0.000000
    12  H    2.497397   0.000000
    13  H    4.307620   2.471502   0.000000
    14  H    2.470662   4.306871   4.983636   0.000000
    15  H    4.783297   5.943603   5.568182   2.483643   0.000000
    16  H    6.754536   7.201729   5.943944   4.783335   2.470697
    17  H    7.201713   6.755132   4.783781   5.943621   4.306884
    18  H    5.943952   4.783811   2.483513   5.568202   4.983632
    19  Bq   2.682046   2.681859   2.685079   2.685022   3.645934
    20  Bq   2.682166   2.681877   2.684951   2.685113   3.646086
    21  Bq   4.872363   4.872359   3.645889   3.646067   2.685146
    22  Bq   4.872267   4.872316   3.645972   3.645997   2.684991
    23  Bq   3.600874   3.600848   2.784113   2.784083   2.784069
    24  Bq   2.488714   2.488456   2.491847   2.491905   3.506193
    25  Bq   4.768590   4.768614   3.506110   3.506216   2.491905
                   16         17         18         19         20
    16  H    0.000000
    17  H    2.497399   0.000000
    18  H    4.307609   2.471471   0.000000
    19  Bq   4.872305   4.872339   3.645951   0.000000
    20  Bq   4.872339   4.872318   3.645935   2.000000   0.000000
    21  Bq   2.682097   2.681798   2.684981   3.162333   2.449609
    22  Bq   2.682129   2.681923   2.685039   2.449551   3.162362
    23  Bq   3.600881   3.600839   2.784119   1.581151   1.581195
    24  Bq   4.768597   4.768604   3.506123   1.000000   1.000000
    25  Bq   2.488720   2.488448   2.491843   2.645813   2.645857
                   21         22         23         24         25
    21  Bq   0.000000
    22  Bq   2.000000   0.000000
    23  Bq   1.581182   1.581167   0.000000
    24  Bq   2.645839   2.645830   1.224789   0.000000
    25  Bq   1.000000   1.000000   1.224790   2.449580   0.000000
 Symmetry turned off by external request.
 Symmetry turned off:
 Cannot cope with ghost atoms or with translation vectors.
 Stoichiometry    C10H8
 Framework group  C1[X(C10H8)]
 NumDoF:  NAt=    18 NAtoms=    25
 Deg. of freedom     0
 Full point group                 C1      NOp   1
 Rotational constants (GHZ):           3.1245824           1.2328616           0.8840452
 Leave Link  202 at Thu Nov 20 14:58:10 2025, MaxMem= 12079595520 cpu:               5.1 elap:               0.2
 (Enter /local/gaussian-16.A03/g16/l301.exe)
 Standard basis: Aug-CC-pVDZ (5D, 7F)
 Warning:  center  19 has no basis functions!
 Warning:  center  20 has no basis functions!
 Warning:  center  21 has no basis functions!
 Warning:  center  22 has no basis functions!
 Warning:  center  23 has no basis functions!
 Warning:  center  24 has no basis functions!
 Warning:  center  25 has no basis functions!
 Ernie: Thresh=  0.10000D-02 Tol=  0.10000D-05 Strict=F.
 Ernie:  20 primitive shells out of 306 were deleted.
   302 basis functions,   518 primitive gaussians,   322 cartesian basis functions
    34 alpha electrons       34 beta electrons
       nuclear repulsion energy       457.6343409000 Hartrees.
 IExCor= 4538 DFT=T Ex+Corr=wB97X ExCW=0 ScaHFX=  1.000000
 ScaDFX=  1.000000  1.000000  1.000000  1.000000 ScalE2=  1.000000  1.000000
 IRadAn=      5 IRanWt=     -1 IRanGd=            0 ICorTp=0 IEmpDi=  4
 HFx  wShort=  0.000000 wLong=  0.300000 cFull=  0.157706 cShort=  0.000000 cLong=  0.842294
 DFx  wShort=  0.000000 wLong=  0.300000 cFull=  0.000000 cShort=  0.000000 cLong=  1.000000
 NAtoms=   25 NActive=   25 NUniq=   25 SFac= 1.00D+00 NAtFMM=   60 NAOKFM=F Big=F
 Integral buffers will be    131072 words long.
 Raffenetti 2 integral format.
 Two-electron integral symmetry is turned off.
 Leave Link  301 at Thu Nov 20 14:58:10 2025, MaxMem= 12079595520 cpu:               6.8 elap:               0.2
 (Enter /local/gaussian-16.A03/g16/l302.exe)
 NPDir=0 NMtPBC=     1 NCelOv=     1 NCel=       1 NClECP=     1 NCelD=      1
         NCelK=      1 NCelE2=     1 NClLst=     1 CellRange=     0.0.
 One-electron integrals computed using PRISM.
 NBasis=   302 RedAO= T EigKep=  1.14D-06  NBF=   302
 NBsUse=   301 1.00D-06 EigRej=  8.40D-07 NBFU=   301
 Precomputing XC quadrature grid using
 IXCGrd= 4 IRadAn=           5 IRanWt=          -1 IRanGd=           0 AccXCQ= 0.00D+00.
 Generated NRdTot=       0 NPtTot=           0 NUsed=           0 NTot=          32
 NSgBfM=   322   322   322   322   322 MxSgAt=    25 MxSgA2=    18.
 Leave Link  302 at Thu Nov 20 14:58:10 2025, MaxMem= 12079595520 cpu:              15.2 elap:               0.4
 (Enter /local/gaussian-16.A03/g16/l303.exe)
 DipDrv:  MaxL=1.
 Leave Link  303 at Thu Nov 20 14:58:11 2025, MaxMem= 12079595520 cpu:               8.3 elap:               0.2
 (Enter /local/gaussian-16.A03/g16/l308.exe)
 Leave Link  308 at Thu Nov 20 14:58:11 2025, MaxMem= 12079595520 cpu:               7.9 elap:               0.2
 (Enter /local/gaussian-16.A03/g16/l401.exe)
 ExpMin= 2.97D-02 ExpMax= 6.67D+03 ExpMxC= 2.28D+02 IAcc=3 IRadAn=         5 AccDes= 0.00D+00
 Harris functional with IExCor= 4538 and IRadAn=       5 diagonalized for initial guess.
 HarFok:  IExCor= 4538 AccDes= 0.00D+00 IRadAn=         5 IDoV= 1 UseB2=F ITyADJ=14
 ICtDFT=  3500011 ScaDFX=  1.000000  1.000000  1.000000  1.000000
 FoFCou: FMM=F IPFlag=           0 FMFlag=      100000 FMFlg1=           0
         NFxFlg=           0 DoJE=T BraDBF=F KetDBF=T FulRan=T
         wScrn=  0.000000 ICntrl=       500 IOpCl=  0 I1Cent=   200000004 NGrid=           0
         NMat0=    1 NMatS0=      1 NMatT0=    0 NMatD0=    1 NMtDS0=    0 NMtDT0=    0
 Symmetry not used in FoFCou.
 Harris En= -368.355150916878    
 JPrj=0 DoOrth=F DoCkMO=F.
 Leave Link  401 at Thu Nov 20 14:58:12 2025, MaxMem= 12079595520 cpu:              43.1 elap:               1.1
 (Enter /local/gaussian-16.A03/g16/l502.exe)
 Two-electron integral symmetry not used.
 Closed shell SCF:
 Using DIIS extrapolation, IDIIS=  1040.
 NGot= 12079595520 LenX= 12079372515 LenY= 12079268390
 Requested convergence on RMS density matrix=1.00D-08 within 128 cycles.
 Requested convergence on MAX density matrix=1.00D-06.
 Requested convergence on             energy=1.00D-06.
 No special actions if energy rises.
 Fock matrices will be formed incrementally for  20 cycles.

 Cycle   1  Pass 1  IDiag  1:
 FoFJK:  IHMeth= 1 ICntrl=       0 DoSepK=T KAlg= 0 I1Cent=           0 FoldK=F
 IRaf=         1 NMat=       1 IRICut=       1 DoRegI=T DoRafI=F ISym2E= 0 IDoP0=0 IntGTp=1.
 FoFCou: FMM=F IPFlag=           0 FMFlag=      100000 FMFlg1=           0
         NFxFlg=           0 DoJE=T BraDBF=F KetDBF=F FulRan=T
         wScrn=  0.000000 ICntrl=       500 IOpCl=  0 I1Cent=           0 NGrid=           0
         NMat0=    1 NMatS0=      1 NMatT0=    0 NMatD0=    1 NMtDS0=    0 NMtDT0=    0
 Symmetry not used in FoFCou.
 E= -385.786717333527    
 DIIS: error= 2.08D-02 at cycle   1 NSaved=   1.
 NSaved= 1 IEnMin= 1 EnMin= -385.786717333527     IErMin= 1 ErrMin= 2.08D-02
 ErrMax= 2.08D-02  0.00D+00 EMaxC= 1.00D-01 BMatC= 7.54D-02 BMatP= 7.54D-02
 IDIUse=3 WtCom= 7.92D-01 WtEn= 2.08D-01
 Coeff-Com:  0.100D+01
 Coeff-En:   0.100D+01
 Coeff:      0.100D+01
 Gap=     0.328 Goal=   None    Shift=    0.000
 GapD=    0.328 DampG=1.000 DampE=0.500 DampFc=0.5000 IDamp=-1.
 Damping current iteration by 5.00D-01
 RMSDP=5.07D-02 MaxDP=1.77D+00              OVMax= 4.21D-02

 Cycle   2  Pass 1  IDiag  1:
 RMSU=  7.52D-03    CP:  8.88D-01
 E= -385.805243524778     Delta-E=       -0.018526191251 Rises=F Damp=T
 DIIS: error= 1.07D-02 at cycle   2 NSaved=   2.
 NSaved= 2 IEnMin= 2 EnMin= -385.805243524778     IErMin= 2 ErrMin= 1.07D-02
 ErrMax= 1.07D-02  0.00D+00 EMaxC= 1.00D-01 BMatC= 1.80D-02 BMatP= 7.54D-02
 IDIUse=3 WtCom= 8.93D-01 WtEn= 1.07D-01
 Coeff-Com: -0.765D+00 0.176D+01
 Coeff-En:   0.000D+00 0.100D+01
 Coeff:     -0.683D+00 0.168D+01
 Gap=     0.360 Goal=   None    Shift=    0.000
 RMSDP=2.36D-02 MaxDP=8.09D-01 DE=-1.85D-02 OVMax= 2.33D-02

 Cycle   3  Pass 1  IDiag  1:
 RMSU=  6.25D-03    CP:  7.84D-01  1.59D+00
 E= -385.822889672557     Delta-E=       -0.017646147779 Rises=F Damp=F
 DIIS: error= 2.12D-03 at cycle   3 NSaved=   3.
 NSaved= 3 IEnMin= 3 EnMin= -385.822889672557     IErMin= 3 ErrMin= 2.12D-03
 ErrMax= 2.12D-03  0.00D+00 EMaxC= 1.00D-01 BMatC= 1.08D-03 BMatP= 1.80D-02
 IDIUse=3 WtCom= 9.79D-01 WtEn= 2.12D-02
 Coeff-Com: -0.297D+00 0.568D+00 0.729D+00
 Coeff-En:   0.000D+00 0.000D+00 0.100D+01
 Coeff:     -0.291D+00 0.556D+00 0.735D+00
 Gap=     0.332 Goal=   None    Shift=    0.000
 RMSDP=2.90D-03 MaxDP=9.04D-02 DE=-1.76D-02 OVMax= 9.21D-03

 Cycle   4  Pass 1  IDiag  1:
 RMSU=  6.50D-04    CP:  7.73D-01  1.69D+00  7.92D-01
 E= -385.824012736806     Delta-E=       -0.001123064249 Rises=F Damp=F
 DIIS: error= 7.33D-04 at cycle   4 NSaved=   4.
 NSaved= 4 IEnMin= 4 EnMin= -385.824012736806     IErMin= 4 ErrMin= 7.33D-04
 ErrMax= 7.33D-04  0.00D+00 EMaxC= 1.00D-01 BMatC= 4.66D-05 BMatP= 1.08D-03
 IDIUse=3 WtCom= 9.93D-01 WtEn= 7.33D-03
 Coeff-Com: -0.947D-01 0.176D+00 0.261D+00 0.657D+00
 Coeff-En:   0.000D+00 0.000D+00 0.000D+00 0.100D+01
 Coeff:     -0.940D-01 0.175D+00 0.259D+00 0.660D+00
 Gap=     0.332 Goal=   None    Shift=    0.000
 RMSDP=3.14D-04 MaxDP=1.50D-02 DE=-1.12D-03 OVMax= 3.36D-03

 Cycle   5  Pass 1  IDiag  1:
 RMSU=  2.60D-04    CP:  7.72D-01  1.69D+00  7.82D-01  1.11D+00
 E= -385.824067667970     Delta-E=       -0.000054931164 Rises=F Damp=F
 DIIS: error= 2.70D-04 at cycle   5 NSaved=   5.
 NSaved= 5 IEnMin= 5 EnMin= -385.824067667970     IErMin= 5 ErrMin= 2.70D-04
 ErrMax= 2.70D-04  0.00D+00 EMaxC= 1.00D-01 BMatC= 7.05D-06 BMatP= 4.66D-05
 IDIUse=3 WtCom= 9.97D-01 WtEn= 2.70D-03
 Coeff-Com:  0.463D-01-0.905D-01-0.116D+00 0.200D+00 0.961D+00
 Coeff-En:   0.000D+00 0.000D+00 0.000D+00 0.000D+00 0.100D+01
 Coeff:      0.462D-01-0.902D-01-0.116D+00 0.199D+00 0.961D+00
 Gap=     0.333 Goal=   None    Shift=    0.000
 RMSDP=1.53D-04 MaxDP=3.70D-03 DE=-5.49D-05 OVMax= 2.61D-03

 Cycle   6  Pass 1  IDiag  1:
 RMSU=  1.05D-04    CP:  7.72D-01  1.69D+00  7.79D-01  1.24D+00  9.96D-01
 E= -385.824083314054     Delta-E=       -0.000015646085 Rises=F Damp=F
 DIIS: error= 9.18D-05 at cycle   6 NSaved=   6.
 NSaved= 6 IEnMin= 6 EnMin= -385.824083314054     IErMin= 6 ErrMin= 9.18D-05
 ErrMax= 9.18D-05  0.00D+00 EMaxC= 1.00D-01 BMatC= 2.97D-07 BMatP= 7.05D-06
 IDIUse=1 WtCom= 1.00D+00 WtEn= 0.00D+00
 Coeff-Com:  0.972D-02-0.186D-01-0.257D-01-0.946D-02 0.110D+00 0.934D+00
 Coeff:      0.972D-02-0.186D-01-0.257D-01-0.946D-02 0.110D+00 0.934D+00
 Gap=     0.333 Goal=   None    Shift=    0.000
 RMSDP=6.62D-05 MaxDP=2.95D-03 DE=-1.56D-05 OVMax= 6.56D-04

 Cycle   7  Pass 1  IDiag  1:
 RMSU=  3.14D-05    CP:  7.73D-01  1.69D+00  7.79D-01  1.27D+00  1.13D+00
                    CP:  8.80D-01
 E= -385.824084416800     Delta-E=       -0.000001102745 Rises=F Damp=F
 DIIS: error= 3.60D-05 at cycle   7 NSaved=   7.
 NSaved= 7 IEnMin= 7 EnMin= -385.824084416800     IErMin= 7 ErrMin= 3.60D-05
 ErrMax= 3.60D-05  0.00D+00 EMaxC= 1.00D-01 BMatC= 8.01D-08 BMatP= 2.97D-07
 IDIUse=1 WtCom= 1.00D+00 WtEn= 0.00D+00
 Coeff-Com: -0.718D-02 0.141D-01 0.173D-01-0.420D-01-0.161D+00 0.248D+00
 Coeff-Com:  0.931D+00
 Coeff:     -0.718D-02 0.141D-01 0.173D-01-0.420D-01-0.161D+00 0.248D+00
 Coeff:      0.931D+00
 Gap=     0.333 Goal=   None    Shift=    0.000
 RMSDP=3.35D-05 MaxDP=1.41D-03 DE=-1.10D-06 OVMax= 3.99D-04

 Cycle   8  Pass 1  IDiag  1:
 RMSU=  1.16D-05    CP:  7.73D-01  1.69D+00  7.79D-01  1.27D+00  1.12D+00
                    CP:  9.69D-01  9.48D-01
 E= -385.824084705848     Delta-E=       -0.000000289048 Rises=F Damp=F
 DIIS: error= 1.42D-05 at cycle   8 NSaved=   8.
 NSaved= 8 IEnMin= 8 EnMin= -385.824084705848     IErMin= 8 ErrMin= 1.42D-05
 ErrMax= 1.42D-05  0.00D+00 EMaxC= 1.00D-01 BMatC= 8.62D-09 BMatP= 8.01D-08
 IDIUse=1 WtCom= 1.00D+00 WtEn= 0.00D+00
 Coeff-Com: -0.297D-02 0.578D-02 0.751D-02-0.723D-02-0.499D-01-0.125D+00
 Coeff-Com:  0.186D+00 0.986D+00
 Coeff:     -0.297D-02 0.578D-02 0.751D-02-0.723D-02-0.499D-01-0.125D+00
 Coeff:      0.186D+00 0.986D+00
 Gap=     0.333 Goal=   None    Shift=    0.000
 RMSDP=1.00D-05 MaxDP=4.24D-04 DE=-2.89D-07 OVMax= 1.51D-04

 Cycle   9  Pass 1  IDiag  1:
 RMSU=  4.12D-06    CP:  7.73D-01  1.69D+00  7.79D-01  1.27D+00  1.14D+00
                    CP:  9.34D-01  1.12D+00  1.07D+00
 E= -385.824084740794     Delta-E=       -0.000000034947 Rises=F Damp=F
 DIIS: error= 1.67D-06 at cycle   9 NSaved=   9.
 NSaved= 9 IEnMin= 9 EnMin= -385.824084740794     IErMin= 9 ErrMin= 1.67D-06
 ErrMax= 1.67D-06  0.00D+00 EMaxC= 1.00D-01 BMatC= 1.82D-10 BMatP= 8.62D-09
 IDIUse=1 WtCom= 1.00D+00 WtEn= 0.00D+00
 Coeff-Com:  0.867D-03-0.170D-02-0.207D-02 0.347D-02 0.164D-01 0.123D-01
 Coeff-Com: -0.831D-01-0.187D+00 0.124D+01
 Coeff:      0.867D-03-0.170D-02-0.207D-02 0.347D-02 0.164D-01 0.123D-01
 Coeff:     -0.831D-01-0.187D+00 0.124D+01
 Gap=     0.333 Goal=   None    Shift=    0.000
 RMSDP=5.32D-06 MaxDP=2.24D-04 DE=-3.49D-08 OVMax= 2.16D-05

 Cycle  10  Pass 1  IDiag  1:
 RMSU=  9.93D-07    CP:  7.73D-01  1.69D+00  7.79D-01  1.27D+00  1.13D+00
                    CP:  9.31D-01  1.09D+00  1.15D+00  1.19D+00
 E= -385.824084741716     Delta-E=       -0.000000000922 Rises=F Damp=F
 DIIS: error= 2.42D-07 at cycle  10 NSaved=  10.
 NSaved=10 IEnMin=10 EnMin= -385.824084741716     IErMin=10 ErrMin= 2.42D-07
 ErrMax= 2.42D-07  0.00D+00 EMaxC= 1.00D-01 BMatC= 4.97D-12 BMatP= 1.82D-10
 IDIUse=1 WtCom= 1.00D+00 WtEn= 0.00D+00
 Coeff-Com:  0.132D-05-0.422D-06-0.963D-05-0.144D-03-0.380D-03 0.371D-02
 Coeff-Com:  0.262D-02-0.855D-02-0.123D+00 0.113D+01
 Coeff:      0.132D-05-0.422D-06-0.963D-05-0.144D-03-0.380D-03 0.371D-02
 Coeff:      0.262D-02-0.855D-02-0.123D+00 0.113D+01
 Gap=     0.333 Goal=   None    Shift=    0.000
 RMSDP=6.75D-07 MaxDP=3.10D-05 DE=-9.22D-10 OVMax= 1.77D-06

 Cycle  11  Pass 1  IDiag  1:
 RMSU=  1.44D-07    CP:  7.73D-01  1.69D+00  7.79D-01  1.27D+00  1.13D+00
                    CP:  9.33D-01  1.08D+00  1.16D+00  1.18D+00  1.17D+00
 E= -385.824084741721     Delta-E=       -0.000000000005 Rises=F Damp=F
 DIIS: error= 3.98D-08 at cycle  11 NSaved=  11.
 NSaved=11 IEnMin=11 EnMin= -385.824084741721     IErMin=11 ErrMin= 3.98D-08
 ErrMax= 3.98D-08  0.00D+00 EMaxC= 1.00D-01 BMatC= 2.64D-13 BMatP= 4.97D-12
 IDIUse=1 WtCom= 1.00D+00 WtEn= 0.00D+00
 Coeff-Com: -0.456D-04 0.896D-04 0.108D-03-0.189D-03-0.912D-03-0.391D-03
 Coeff-Com:  0.405D-02 0.864D-02-0.726D-01 0.675D-01 0.994D+00
 Coeff:     -0.456D-04 0.896D-04 0.108D-03-0.189D-03-0.912D-03-0.391D-03
 Coeff:      0.405D-02 0.864D-02-0.726D-01 0.675D-01 0.994D+00
 Gap=     0.333 Goal=   None    Shift=    0.000
 RMSDP=7.51D-08 MaxDP=2.67D-06 DE=-4.77D-12 OVMax= 4.75D-07

 Cycle  12  Pass 1  IDiag  1:
 RMSU=  2.00D-08    CP:  7.73D-01  1.69D+00  7.79D-01  1.27D+00  1.13D+00
                    CP:  9.33D-01  1.08D+00  1.16D+00  1.18D+00  1.19D+00
                    CP:  1.19D+00
 E= -385.824084741738     Delta-E=       -0.000000000017 Rises=F Damp=F
 DIIS: error= 5.66D-09 at cycle  12 NSaved=  12.
 NSaved=12 IEnMin=12 EnMin= -385.824084741738     IErMin=12 ErrMin= 5.66D-09
 ErrMax= 5.66D-09  0.00D+00 EMaxC= 1.00D-01 BMatC= 6.82D-15 BMatP= 2.64D-13
 IDIUse=1 WtCom= 1.00D+00 WtEn= 0.00D+00
 Coeff-Com:  0.712D-06-0.148D-05-0.205D-05 0.759D-05 0.304D-04-0.671D-04
 Coeff-Com: -0.136D-03-0.256D-04 0.469D-02-0.315D-01-0.135D-01 0.104D+01
 Coeff:      0.712D-06-0.148D-05-0.205D-05 0.759D-05 0.304D-04-0.671D-04
 Coeff:     -0.136D-03-0.256D-04 0.469D-02-0.315D-01-0.135D-01 0.104D+01
 Gap=     0.333 Goal=   None    Shift=    0.000
 RMSDP=1.76D-08 MaxDP=7.36D-07 DE=-1.68D-11 OVMax= 6.16D-08

 Cycle  13  Pass 1  IDiag  1:
 RMSU=  5.02D-09    CP:  7.73D-01  1.69D+00  7.79D-01  1.27D+00  1.13D+00
                    CP:  9.33D-01  1.08D+00  1.16D+00  1.18D+00  1.18D+00
                    CP:  1.22D+00  1.09D+00
 E= -385.824084741739     Delta-E=       -0.000000000001 Rises=F Damp=F
 DIIS: error= 3.78D-09 at cycle  13 NSaved=  13.
 NSaved=13 IEnMin=13 EnMin= -385.824084741739     IErMin=13 ErrMin= 3.78D-09
 ErrMax= 3.78D-09  0.00D+00 EMaxC= 1.00D-01 BMatC= 3.52D-15 BMatP= 6.82D-15
 IDIUse=1 WtCom= 1.00D+00 WtEn= 0.00D+00
 Coeff-Com:  0.301D-05-0.596D-05-0.737D-05 0.148D-04 0.680D-04-0.588D-05
 Coeff-Com: -0.307D-03-0.523D-03 0.654D-02-0.191D-01-0.647D-01 0.507D+00
 Coeff-Com:  0.571D+00
 Coeff:      0.301D-05-0.596D-05-0.737D-05 0.148D-04 0.680D-04-0.588D-05
 Coeff:     -0.307D-03-0.523D-03 0.654D-02-0.191D-01-0.647D-01 0.507D+00
 Coeff:      0.571D+00
 Gap=     0.333 Goal=   None    Shift=    0.000
 RMSDP=3.04D-09 MaxDP=1.35D-07 DE=-1.02D-12 OVMax= 2.03D-08

 SCF Done:  E(RwB97X) =  -385.824084742     A.U. after   13 cycles
            NFock= 13  Conv=0.30D-08     -V/T= 2.0066
 KE= 3.832965992171D+02 PE=-1.808898682556D+03 EE= 5.821436576974D+02
 Leave Link  502 at Thu Nov 20 14:59:01 2025, MaxMem= 12079595520 cpu:            1930.6 elap:              48.9
 (Enter /local/gaussian-16.A03/g16/l801.exe)
 DoSCS=F DFT=T ScalE2(SS,OS)=  1.000000  1.000000
 Range of M.O.s used for correlation:     1   301
 NBasis=   302 NAE=    34 NBE=    34 NFC=     0 NFV=     0
 NROrb=    301 NOA=    34 NOB=    34 NVA=   267 NVB=   267

 **** Warning!!: The largest alpha MO coefficient is  0.22325396D+03

 Leave Link  801 at Thu Nov 20 14:59:01 2025, MaxMem= 12079595520 cpu:               6.6 elap:               0.2
 (Enter /local/gaussian-16.A03/g16/l1002.exe)
 Minotr:  Closed shell wavefunction.
          Direct CPHF calculation.
          Differentiating once with respect to magnetic field using GIAOs.
          Electric field/nuclear overlap derivatives assumed to be zero.
          Requested convergence is 1.0D-08 RMS, and 1.0D-07 maximum.
          Secondary convergence is 1.0D-12 RMS, and 1.0D-12 maximum.
          NewPWx=T KeepS1=F KeepF1=F KeepIn=T MapXYZ=F SortEE=F KeepMc=T.
         6401 words used for storage of precomputed grid.
 Two-electron integral symmetry not used.
          MDV=   12079595520 using IRadAn=       1.
          Solving linear equations simultaneously, MaxMat=     360.
 FoFCou: FMM=F IPFlag=           0 FMFlag=      100000 FMFlg1=           0
         NFxFlg=           0 DoJE=F BraDBF=F KetDBF=T FulRan=T
         wScrn=  0.000000 ICntrl=      6100 IOpCl=  0 I1Cent=           7 NGrid=          25
         NMat0=    1 NMatS0=      1 NMatT0=    0 NMatD0=    1 NMtDS0=    0 NMtDT0=    0
 Symmetry not used in FoFCou.
 FoFJK:  IHMeth= 1 ICntrl=    6127 DoSepK=T KAlg= 0 I1Cent=           0 FoldK=F
 IRaf=         1 NMat=       1 IRICut=       1 DoRegI=T DoRafI=F ISym2E= 0 IDoP0=0 IntGTp=1.
          There are     3 degrees of freedom in the 1st order CPHF.  IDoFFX=0 NUNeed=     3.
      3 vectors produced by pass  0 Test12= 3.03D-13 3.33D-08 XBig12= 3.99D+02 1.10D+01.
 AX will form     3 AO Fock derivatives at one time.
      3 vectors produced by pass  1 Test12= 3.03D-13 3.33D-08 XBig12= 1.98D+00 3.05D-01.
      3 vectors produced by pass  2 Test12= 3.03D-13 3.33D-08 XBig12= 3.02D-02 5.93D-02.
      3 vectors produced by pass  3 Test12= 3.03D-13 3.33D-08 XBig12= 7.53D-04 1.27D-02.
      3 vectors produced by pass  4 Test12= 3.03D-13 3.33D-08 XBig12= 1.47D-05 1.09D-03.
      3 vectors produced by pass  5 Test12= 3.03D-13 3.33D-08 XBig12= 1.12D-07 6.66D-05.
      3 vectors produced by pass  6 Test12= 3.03D-13 3.33D-08 XBig12= 7.76D-10 6.00D-06.
      3 vectors produced by pass  7 Test12= 3.03D-13 3.33D-08 XBig12= 6.57D-12 6.07D-07.
      3 vectors produced by pass  8 Test12= 3.03D-13 3.33D-08 XBig12= 2.10D-13 1.18D-07.
      3 vectors produced by pass  9 Test12= 3.03D-13 3.33D-08 XBig12= 3.38D-13 1.91D-07.
      1 vectors produced by pass 10 Test12= 3.03D-13 3.33D-08 XBig12= 3.47D-14 4.43D-08.
 InvSVY:  IOpt=1 It=  1 EMax= 5.33D-15
 Solved reduced A of dimension    31 with     3 vectors.
 Calculating GIAO nuclear magnetic shielding tensors.
 SCF GIAO Magnetic shielding tensor (ppm):
      1  C    Isotropic =    71.6660   Anisotropy =   172.0600
   XX=     1.4701   YX=    45.2293   ZX=     0.0377
   XY=    47.5244   YY=    27.1553   ZY=    -0.0283
   XZ=     0.0459   YZ=    -0.0309   ZZ=   186.3727
   Eigenvalues:   -33.8095    62.4349   186.3727
      2  C    Isotropic =    71.7295   Anisotropy =   172.0704
   XX=     3.0162   YX=   -45.5290   ZX=     0.0172
   XY=   -47.8039   YY=    25.7291   ZY=    -0.0110
   XZ=     0.0138   YZ=    -0.0060   ZZ=   186.4430
   Eigenvalues:   -33.6557    62.4011   186.4430
      3  C    Isotropic =    69.4472   Anisotropy =   156.8625
   XX=    61.2100   YX=   -18.7791   ZX=     0.0034
   XY=   -15.2620   YY=   -26.8906   ZY=    -0.0309
   XZ=     0.0051   YZ=    -0.0073   ZZ=   174.0222
   Eigenvalues:   -30.0646    64.3839   174.0222
      4  C    Isotropic =    62.1079   Anisotropy =   206.0156
   XX=   -10.8968   YX=    -0.0659   ZX=     0.0112
   XY=    -0.0348   YY=    -2.2311   ZY=    -0.0056
   XZ=     0.0127   YZ=    -0.0289   ZZ=   199.4516
   Eigenvalues:   -10.8971    -2.2308   199.4517
      5  C    Isotropic =    62.0986   Anisotropy =   206.0044
   XX=   -10.8875   YX=    -0.0646   ZX=     0.0106
   XY=    -0.0347   YY=    -2.2516   ZY=    -0.0110
   XZ=     0.0126   YZ=    -0.0347   ZZ=   199.4348
   Eigenvalues:   -10.8878    -2.2513   199.4348
      6  C    Isotropic =    69.3783   Anisotropy =   156.9087
   XX=    60.6122   YX=    20.2715   ZX=     0.0197
   XY=    16.7371   YY=   -26.4614   ZY=    -0.0292
   XZ=     0.0161   YZ=    -0.0432   ZZ=   173.9841
   Eigenvalues:   -30.2306    64.3814   173.9841
      7  C    Isotropic =    69.3742   Anisotropy =   156.9003
   XX=    61.1840   YX=   -18.8534   ZX=    -0.0008
   XY=   -15.3059   YY=   -27.0358   ZY=    -0.0371
   XZ=     0.0048   YZ=    -0.0187   ZZ=   173.9744
   Eigenvalues:   -30.2270    64.3752   173.9744
      8  C    Isotropic =    71.6894   Anisotropy =   172.0861
   XX=     3.0162   YX=   -45.6223   ZX=     0.0134
   XY=   -47.8989   YY=    25.6385   ZY=    -0.0132
   XZ=     0.0065   YZ=    -0.0075   ZZ=   186.4134
   Eigenvalues:   -33.7818    62.4366   186.4134
      9  C    Isotropic =    71.7073   Anisotropy =   172.0461
   XX=     1.4744   YX=    45.1344   ZX=     0.0331
   XY=    47.4272   YY=    27.2429   ZY=    -0.0264
   XZ=     0.0388   YZ=    -0.0296   ZZ=   186.4047
   Eigenvalues:   -33.6822    62.3994   186.4047
     10  C    Isotropic =    69.4509   Anisotropy =   156.8704
   XX=    60.6398   YX=    20.1933   ZX=     0.0156
   XY=    16.6900   YY=   -26.3183   ZY=    -0.0240
   XZ=     0.0156   YZ=    -0.0311   ZZ=   174.0312
   Eigenvalues:   -30.0676    64.3891   174.0312
     11  H    Isotropic =    23.7104   Anisotropy =     5.4744
   XX=    25.3027   YX=     1.5471   ZX=    -0.0003
   XY=     1.7675   YY=    26.0250   ZY=     0.0002
   XZ=    -0.0007   YZ=     0.0008   ZZ=    19.8035
   Eigenvalues:    19.8035    23.9677    27.3600
     12  H    Isotropic =    23.7118   Anisotropy =     5.4701
   XX=    25.3574   YX=    -1.5515   ZX=    -0.0003
   XY=    -1.7714   YY=    25.9792   ZY=     0.0010
   XZ=    -0.0009   YZ=     0.0005   ZZ=    19.7989
   Eigenvalues:    19.7989    23.9781    27.3586
     13  H    Isotropic =    23.2638   Anisotropy =     7.3698
   XX=    28.1212   YX=    -0.4110   ZX=    -0.0010
   XY=    -0.6653   YY=    22.9942   ZY=    -0.0001
   XZ=    -0.0002   YZ=     0.0018   ZZ=    18.6761
   Eigenvalues:    18.6761    22.9383    28.1770
     14  H    Isotropic =    23.2622   Anisotropy =     7.3773
   XX=    28.1038   YX=     0.5045   ZX=    -0.0007
   XY=     0.7540   YY=    23.0062   ZY=    -0.0002
   XZ=    -0.0010   YZ=     0.0002   ZZ=    18.6765
   Eigenvalues:    18.6765    22.9297    28.1804
     15  H    Isotropic =    23.2623   Anisotropy =     7.3769
   XX=    28.1228   YX=    -0.4214   ZX=    -0.0009
   XY=    -0.6705   YY=    22.9875   ZY=    -0.0001
   XZ=     0.0001   YZ=     0.0018   ZZ=    18.6766
   Eigenvalues:    18.6766    22.9301    28.1803
     16  H    Isotropic =    23.7104   Anisotropy =     5.4738
   XX=    25.3571   YX=    -1.5558   ZX=    -0.0003
   XY=    -1.7786   YY=    25.9715   ZY=     0.0010
   XZ=    -0.0007   YZ=     0.0006   ZZ=    19.8025
   Eigenvalues:    19.8025    23.9690    27.3596
     17  H    Isotropic =    23.7119   Anisotropy =     5.4708
   XX=    25.3033   YX=     1.5426   ZX=    -0.0003
   XY=     1.7601   YY=    26.0326   ZY=     0.0003
   XZ=    -0.0005   YZ=     0.0008   ZZ=    19.7998
   Eigenvalues:    19.7998    23.9768    27.3591
     18  H    Isotropic =    23.2637   Anisotropy =     7.3702
   XX=    28.1025   YX=     0.4939   ZX=    -0.0006
   XY=     0.7484   YY=    23.0126   ZY=    -0.0001
   XZ=    -0.0008   YZ=     0.0002   ZZ=    18.6761
   Eigenvalues:    18.6761    22.9379    28.1772
     19  Bq   Isotropic =    10.2266   Anisotropy =    28.2946
   XX=     0.4562   YX=    -0.0055   ZX=    -0.3512
   XY=    -0.0066   YY=     1.3109   ZY=    -0.0003
   XZ=    -4.1510   YZ=    -0.0372   ZZ=    28.9126
   Eigenvalues:     0.2792     1.3109    29.0896
     20  Bq   Isotropic =    10.2257   Anisotropy =    28.2928
   XX=     0.4558   YX=    -0.0040   ZX=     0.3563
   XY=    -0.0060   YY=     1.3115   ZY=    -0.0034
   XZ=     4.1565   YZ=     0.0336   ZZ=    28.9097
   Eigenvalues:     0.2780     1.3115    29.0876
     21  Bq   Isotropic =    10.2262   Anisotropy =    28.2941
   XX=     0.4562   YX=    -0.0097   ZX=    -0.3517
   XY=    -0.0055   YY=     1.3106   ZY=    -0.0084
   XZ=    -4.1515   YZ=    -0.0405   ZZ=    28.9118
   Eigenvalues:     0.2790     1.3106    29.0889
     22  Bq   Isotropic =    10.2262   Anisotropy =    28.2935
   XX=     0.4559   YX=    -0.0083   ZX=     0.3556
   XY=    -0.0048   YY=     1.3118   ZY=     0.0045
   XZ=     4.1557   YZ=     0.0365   ZZ=    28.9108
   Eigenvalues:     0.2781     1.3119    29.0885
     23  Bq   Isotropic =    40.5150   Anisotropy =    62.6966
   XX=    40.5044   YX=     0.3424   ZX=     0.0028
   XY=     0.3408   YY=    -1.2721   ZY=    -0.0024
   XZ=     0.0052   YZ=    -0.0129   ZZ=    82.3127
   Eigenvalues:    -1.2749    40.5072    82.3127
     24  Bq   Isotropic =     7.4426   Anisotropy =     6.4400
   XX=     4.5613   YX=    -0.0059   ZX=     0.0005
   XY=    -0.0095   YY=     6.0307   ZY=     0.0009
   XZ=     0.0011   YZ=    -0.0011   ZZ=    11.7360
   Eigenvalues:     4.5613     6.0307    11.7360
     25  Bq   Isotropic =     7.4427   Anisotropy =     6.4399
   XX=     4.5615   YX=    -0.0182   ZX=     0.0001
   XY=    -0.0120   YY=     6.0306   ZY=     0.0008
   XZ=     0.0013   YZ=    -0.0012   ZZ=    11.7360
   Eigenvalues:     4.5613     6.0308    11.7360
 End of Minotr F.D. properties file   721 does not exist.
 End of Minotr F.D. properties file   722 does not exist.
 End of Minotr F.D. properties file   788 does not exist.
 Leave Link 1002 at Thu Nov 20 14:59:51 2025, MaxMem= 12079595520 cpu:            1947.6 elap:              49.8
 (Enter /local/gaussian-16.A03/g16/l601.exe)
 Copying SCF densities to generalized density rwf, IOpCl= 0 IROHF=0.

 **********************************************************************

            Population analysis using the SCF density.

 **********************************************************************

 Alpha  occ. eigenvalues --  -10.28558 -10.28517 -10.27909 -10.27905 -10.27890
 Alpha  occ. eigenvalues --  -10.27887 -10.27843 -10.27840 -10.27824 -10.27823
 Alpha  occ. eigenvalues --   -1.01536  -0.96016  -0.90989  -0.87580  -0.85309
 Alpha  occ. eigenvalues --   -0.75164  -0.73747  -0.72201  -0.63397  -0.62778
 Alpha  occ. eigenvalues --   -0.61103  -0.56113  -0.55423  -0.52697  -0.52644
 Alpha  occ. eigenvalues --   -0.51417  -0.50912  -0.47393  -0.44214  -0.44052
 Alpha  occ. eigenvalues --   -0.43294  -0.39030  -0.33621  -0.30740
 Alpha virt. eigenvalues --    0.02566   0.04315   0.04571   0.04743   0.05287
 Alpha virt. eigenvalues --    0.05915   0.06168   0.07499   0.08144   0.08273
 Alpha virt. eigenvalues --    0.10033   0.10942   0.11782   0.12123   0.12819
 Alpha virt. eigenvalues --    0.13556   0.13718   0.14617   0.14729   0.15128
 Alpha virt. eigenvalues --    0.15281   0.15350   0.15427   0.16363   0.16578
 Alpha virt. eigenvalues --    0.16887   0.17997   0.19259   0.19478   0.19545
 Alpha virt. eigenvalues --    0.19906   0.19953   0.20436   0.21184   0.21331
 Alpha virt. eigenvalues --    0.21392   0.24193   0.25012   0.25477   0.25789
 Alpha virt. eigenvalues --    0.26152   0.27377   0.28071   0.28894   0.29723
 Alpha virt. eigenvalues --    0.29752   0.29806   0.30196   0.31018   0.31312
 Alpha virt. eigenvalues --    0.31763   0.32875   0.33301   0.33468   0.33861
 Alpha virt. eigenvalues --    0.33949   0.34755   0.35324   0.35779   0.36149
 Alpha virt. eigenvalues --    0.36352   0.37585   0.39324   0.39714   0.40526
 Alpha virt. eigenvalues --    0.40682   0.41211   0.42151   0.43589   0.43591
 Alpha virt. eigenvalues --    0.43749   0.44773   0.45846   0.46939   0.49022
 Alpha virt. eigenvalues --    0.49937   0.50591   0.50890   0.51484   0.51643
 Alpha virt. eigenvalues --    0.52504   0.53396   0.54627   0.56787   0.57761
 Alpha virt. eigenvalues --    0.57814   0.58508   0.58685   0.58954   0.60163
 Alpha virt. eigenvalues --    0.60172   0.61579   0.63095   0.64293   0.64559
 Alpha virt. eigenvalues --    0.64652   0.64910   0.65621   0.65736   0.65976
 Alpha virt. eigenvalues --    0.66820   0.66867   0.67338   0.68467   0.68788
 Alpha virt. eigenvalues --    0.69119   0.70501   0.70576   0.71657   0.72063
 Alpha virt. eigenvalues --    0.72066   0.72808   0.73529   0.74611   0.75076
 Alpha virt. eigenvalues --    0.76655   0.76794   0.78477   0.79105   0.82269
 Alpha virt. eigenvalues --    0.82917   0.83831   0.83880   0.84217   0.84476
 Alpha virt. eigenvalues --    0.85143   0.85693   0.85922   0.86501   0.86748
 Alpha virt. eigenvalues --    0.87311   0.87428   0.88730   0.91726   0.91895
 Alpha virt. eigenvalues --    0.93546   0.94174   0.94241   0.94426   0.98329
 Alpha virt. eigenvalues --    0.98670   1.00136   1.00664   1.01005   1.03548
 Alpha virt. eigenvalues --    1.07414   1.08720   1.10169   1.12672   1.14996
 Alpha virt. eigenvalues --    1.16332   1.18638   1.19966   1.21082   1.24402
 Alpha virt. eigenvalues --    1.25952   1.33124   1.35773   1.36182   1.37062
 Alpha virt. eigenvalues --    1.37112   1.38125   1.40456   1.41387   1.41856
 Alpha virt. eigenvalues --    1.43165   1.43528   1.46142   1.48725   1.48955
 Alpha virt. eigenvalues --    1.49283   1.49634   1.50461   1.50819   1.52337
 Alpha virt. eigenvalues --    1.52636   1.53218   1.54652   1.55584   1.61134
 Alpha virt. eigenvalues --    1.61199   1.61482   1.61657   1.63587   1.64806
 Alpha virt. eigenvalues --    1.64914   1.65488   1.66378   1.69723   1.70694
 Alpha virt. eigenvalues --    1.71432   1.74539   1.74903   1.76741   1.79070
 Alpha virt. eigenvalues --    1.79547   1.80552   1.81017   1.81312   1.82762
 Alpha virt. eigenvalues --    1.83247   1.87196   1.88688   1.89154   1.90946
 Alpha virt. eigenvalues --    1.91698   1.92204   1.93018   1.93858   1.94614
 Alpha virt. eigenvalues --    1.95250   1.96075   1.98014   1.98336   2.00466
 Alpha virt. eigenvalues --    2.00905   2.05801   2.07376   2.08369   2.09863
 Alpha virt. eigenvalues --    2.11266   2.11672   2.12269   2.13830   2.16090
 Alpha virt. eigenvalues --    2.16760   2.18525   2.19139   2.20732   2.22019
 Alpha virt. eigenvalues --    2.22420   2.23721   2.26192   2.27027   2.33106
 Alpha virt. eigenvalues --    2.34131   2.34553   2.37516   2.40154   2.49530
 Alpha virt. eigenvalues --    2.52011   2.55259   2.56115   2.58650   2.62504
 Alpha virt. eigenvalues --    2.63263   2.63327   2.74019   2.74444   2.75538
 Alpha virt. eigenvalues --    2.83175   2.85341   2.85446   2.89115   2.96773
 Alpha virt. eigenvalues --    2.98273   3.06121   3.15764   3.16741   3.16805
 Alpha virt. eigenvalues --    3.32909   3.45846   3.51892   3.60349   3.63188
 Alpha virt. eigenvalues --    4.30646   4.53177
          Condensed to atoms (all electrons):
               1          2          3          4          5          6
     1  C   14.156219  -4.960772   4.525532  -3.732038   2.492517  -4.948980
     2  C   -4.960772  14.154340  -4.949109   2.490259  -3.733696   4.527169
     3  C    4.525532  -4.949109  23.746788  -5.332414  -1.993081  -6.630256
     4  C   -3.732038   2.490259  -5.332414  40.940285 -20.664323  -1.985166
     5  C    2.492517  -3.733696  -1.993081 -20.664323  40.962465  -5.338972
     6  C   -4.948980   4.527169  -6.630256  -1.985166  -5.338972  23.756877
     7  C   -2.528556   1.653591  -3.248410  -1.984716  -5.338038   1.401481
     8  C   -0.066272  -0.308098   1.652910  -3.732230   2.492501  -2.528516
     9  C   -0.308107  -0.065904  -2.525250   2.490459  -3.733748   1.653598
    10  C    1.652967  -2.525276   1.408824  -5.333455  -1.993174  -3.248506
    11  H   -1.572554   0.623513  -0.259041  -0.030606  -0.145130   0.927708
    12  H    0.622615  -1.571197   0.925218  -0.144083  -0.030310  -0.258127
    13  H   -0.427491   0.562341  -2.359211   1.399149  -0.323805   0.253749
    14  H    0.563470  -0.428465   0.253944  -0.325620   1.402556  -2.361593
    15  H    0.069667   0.002191  -0.018028  -0.325640   1.402361   0.160144
    16  H    0.010650  -0.008372  -0.014077  -0.030636  -0.145025   0.046896
    17  H   -0.008348   0.010557   0.046316  -0.144162  -0.030290  -0.013788
    18  H    0.002427   0.069458   0.160930   1.399340  -0.323777  -0.018216
    19  Bq   0.000000   0.000000   0.000000   0.000000   0.000000   0.000000
    20  Bq   0.000000   0.000000   0.000000   0.000000   0.000000   0.000000
    21  Bq   0.000000   0.000000   0.000000   0.000000   0.000000   0.000000
    22  Bq   0.000000   0.000000   0.000000   0.000000   0.000000   0.000000
    23  Bq   0.000000   0.000000   0.000000   0.000000   0.000000   0.000000
    24  Bq   0.000000   0.000000   0.000000   0.000000   0.000000   0.000000
    25  Bq   0.000000   0.000000   0.000000   0.000000   0.000000   0.000000
               7          8          9         10         11         12
     1  C   -2.528556  -0.066272  -0.308107   1.652967  -1.572554   0.622615
     2  C    1.653591  -0.308098  -0.065904  -2.525276   0.623513  -1.571197
     3  C   -3.248410   1.652910  -2.525250   1.408824  -0.259041   0.925218
     4  C   -1.984716  -3.732230   2.490459  -5.333455  -0.030606  -0.144083
     5  C   -5.338038   2.492501  -3.733748  -1.993174  -0.145130  -0.030310
     6  C    1.401481  -2.528516   1.653598  -3.248506   0.927708  -0.258127
     7  C   23.755041  -4.948667   4.526999  -6.630221   0.046898  -0.013789
     8  C   -4.948667  14.155927  -4.960830   4.525690   0.010645  -0.008350
     9  C    4.526999  -4.960830  14.154845  -4.949441  -0.008370   0.010562
    10  C   -6.630221   4.525690  -4.949441  23.748289  -0.014074   0.046310
    11  H    0.046898   0.010645  -0.008370  -0.014074   2.425359  -0.136007
    12  H   -0.013789  -0.008350   0.010562   0.046310  -0.136007   2.424877
    13  H   -0.018217   0.002428   0.069456   0.160969  -0.023245  -0.160107
    14  H    0.160104   0.069678   0.002189  -0.018031  -0.160367  -0.023252
    15  H   -2.361313   0.563401  -0.428414   0.253908   0.006683  -0.001782
    16  H    0.927630  -1.572486   0.623446  -0.259038   0.001074  -0.000447
    17  H   -0.258125   0.622683  -1.571303   0.925308  -0.000446   0.001074
    18  H    0.253786  -0.427548   0.562417  -2.359493  -0.001775   0.006652
    19  Bq   0.000000   0.000000   0.000000   0.000000   0.000000   0.000000
    20  Bq   0.000000   0.000000   0.000000   0.000000   0.000000   0.000000
    21  Bq   0.000000   0.000000   0.000000   0.000000   0.000000   0.000000
    22  Bq   0.000000   0.000000   0.000000   0.000000   0.000000   0.000000
    23  Bq   0.000000   0.000000   0.000000   0.000000   0.000000   0.000000
    24  Bq   0.000000   0.000000   0.000000   0.000000   0.000000   0.000000
    25  Bq   0.000000   0.000000   0.000000   0.000000   0.000000   0.000000
              13         14         15         16         17         18
     1  C   -0.427491   0.563470   0.069667   0.010650  -0.008348   0.002427
     2  C    0.562341  -0.428465   0.002191  -0.008372   0.010557   0.069458
     3  C   -2.359211   0.253944  -0.018028  -0.014077   0.046316   0.160930
     4  C    1.399149  -0.325620  -0.325640  -0.030636  -0.144162   1.399340
     5  C   -0.323805   1.402556   1.402361  -0.145025  -0.030290  -0.323777
     6  C    0.253749  -2.361593   0.160144   0.046896  -0.013788  -0.018216
     7  C   -0.018217   0.160104  -2.361313   0.927630  -0.258125   0.253786
     8  C    0.002428   0.069678   0.563401  -1.572486   0.622683  -0.427548
     9  C    0.069456   0.002189  -0.428414   0.623446  -1.571303   0.562417
    10  C    0.160969  -0.018031   0.253908  -0.259038   0.925308  -2.359493
    11  H   -0.023245  -0.160367   0.006683   0.001074  -0.000446  -0.001775
    12  H   -0.160107  -0.023252  -0.001782  -0.000447   0.001074   0.006652
    13  H    2.882759   0.013949   0.003833  -0.001774   0.006653  -0.146591
    14  H    0.013949   2.884926  -0.146443   0.006682  -0.001782   0.003833
    15  H    0.003833  -0.146443   2.884828  -0.160336  -0.023253   0.013949
    16  H   -0.001774   0.006682  -0.160336   2.425307  -0.136006  -0.023245
    17  H    0.006653  -0.001782  -0.023253  -0.136006   2.424927  -0.160134
    18  H   -0.146591   0.003833   0.013949  -0.023245  -0.160134   2.882851
    19  Bq   0.000000   0.000000   0.000000   0.000000   0.000000   0.000000
    20  Bq   0.000000   0.000000   0.000000   0.000000   0.000000   0.000000
    21  Bq   0.000000   0.000000   0.000000   0.000000   0.000000   0.000000
    22  Bq   0.000000   0.000000   0.000000   0.000000   0.000000   0.000000
    23  Bq   0.000000   0.000000   0.000000   0.000000   0.000000   0.000000
    24  Bq   0.000000   0.000000   0.000000   0.000000   0.000000   0.000000
    25  Bq   0.000000   0.000000   0.000000   0.000000   0.000000   0.000000
              19         20         21         22         23         24
     1  C    0.000000   0.000000   0.000000   0.000000   0.000000   0.000000
     2  C    0.000000   0.000000   0.000000   0.000000   0.000000   0.000000
     3  C    0.000000   0.000000   0.000000   0.000000   0.000000   0.000000
     4  C    0.000000   0.000000   0.000000   0.000000   0.000000   0.000000
     5  C    0.000000   0.000000   0.000000   0.000000   0.000000   0.000000
     6  C    0.000000   0.000000   0.000000   0.000000   0.000000   0.000000
     7  C    0.000000   0.000000   0.000000   0.000000   0.000000   0.000000
     8  C    0.000000   0.000000   0.000000   0.000000   0.000000   0.000000
     9  C    0.000000   0.000000   0.000000   0.000000   0.000000   0.000000
    10  C    0.000000   0.000000   0.000000   0.000000   0.000000   0.000000
    11  H    0.000000   0.000000   0.000000   0.000000   0.000000   0.000000
    12  H    0.000000   0.000000   0.000000   0.000000   0.000000   0.000000
    13  H    0.000000   0.000000   0.000000   0.000000   0.000000   0.000000
    14  H    0.000000   0.000000   0.000000   0.000000   0.000000   0.000000
    15  H    0.000000   0.000000   0.000000   0.000000   0.000000   0.000000
    16  H    0.000000   0.000000   0.000000   0.000000   0.000000   0.000000
    17  H    0.000000   0.000000   0.000000   0.000000   0.000000   0.000000
    18  H    0.000000   0.000000   0.000000   0.000000   0.000000   0.000000
    19  Bq   0.000000   0.000000   0.000000   0.000000   0.000000   0.000000
    20  Bq   0.000000   0.000000   0.000000   0.000000   0.000000   0.000000
    21  Bq   0.000000   0.000000   0.000000   0.000000   0.000000   0.000000
    22  Bq   0.000000   0.000000   0.000000   0.000000   0.000000   0.000000
    23  Bq   0.000000   0.000000   0.000000   0.000000   0.000000   0.000000
    24  Bq   0.000000   0.000000   0.000000   0.000000   0.000000   0.000000
    25  Bq   0.000000   0.000000   0.000000   0.000000   0.000000   0.000000
              25
     1  C    0.000000
     2  C    0.000000
     3  C    0.000000
     4  C    0.000000
     5  C    0.000000
     6  C    0.000000
     7  C    0.000000
     8  C    0.000000
     9  C    0.000000
    10  C    0.000000
    11  H    0.000000
    12  H    0.000000
    13  H    0.000000
    14  H    0.000000
    15  H    0.000000
    16  H    0.000000
    17  H    0.000000
    18  H    0.000000
    19  Bq   0.000000
    20  Bq   0.000000
    21  Bq   0.000000
    22  Bq   0.000000
    23  Bq   0.000000
    24  Bq   0.000000
    25  Bq   0.000000
 Mulliken charges:
               1
     1  C    0.457055
     2  C    0.457469
     3  C    0.608412
     4  C    1.045595
     5  C    1.040969
     6  C    0.604497
     7  C    0.604523
     8  C    0.457134
     9  C    0.457395
    10  C    0.608444
    11  H   -0.690267
    12  H   -0.689858
    13  H   -0.894846
    14  H   -0.895778
    15  H   -0.895755
    16  H   -0.690244
    17  H   -0.689881
    18  H   -0.894865
    19  Bq   0.000000
    20  Bq   0.000000
    21  Bq   0.000000
    22  Bq   0.000000
    23  Bq   0.000000
    24  Bq   0.000000
    25  Bq   0.000000
 Sum of Mulliken charges =  -0.00000
 Mulliken charges with hydrogens summed into heavy atoms:
               1
     1  C   -0.233212
     2  C   -0.232388
     3  C   -0.286433
     4  C    1.045595
     5  C    1.040969
     6  C   -0.291281
     7  C   -0.291232
     8  C   -0.233110
     9  C   -0.232486
    10  C   -0.286421
    19  Bq   0.000000
    20  Bq   0.000000
    21  Bq   0.000000
    22  Bq   0.000000
    23  Bq   0.000000
    24  Bq   0.000000
    25  Bq   0.000000
 Electronic spatial extent (au):  <R**2>=           1292.2841
 Charge=              0.0000 electrons
 Dipole moment (field-independent basis, Debye):
    X=              0.0000    Y=             -0.0011    Z=             -0.0001  Tot=              0.0011
 Quadrupole moment (field-independent basis, Debye-Ang):
   XX=            -51.4809   YY=            -51.7813   ZZ=            -64.5263
   XY=              0.0022   XZ=             -0.0020   YZ=              0.0022
 Traceless Quadrupole moment (field-independent basis, Debye-Ang):
   XX=              4.4487   YY=              4.1482   ZZ=             -8.5968
   XY=              0.0022   XZ=             -0.0020   YZ=              0.0022
 Octapole moment (field-independent basis, Debye-Ang**2):
  XXX=              0.0006  YYY=             -0.0193  ZZZ=             -0.0012  XYY=             -0.0001
  XXY=             -0.0222  XXZ=             -0.0008  XZZ=              0.0001  YZZ=             -0.0042
  YYZ=             -0.0007  XYZ=              0.0000
 Hexadecapole moment (field-independent basis, Debye-Ang**3):
 XXXX=          -1091.6062 YYYY=           -485.4895 ZZZZ=            -77.4903 XXXY=             -2.3259
 XXXZ=              0.0138 YYYX=             -2.6291 YYYZ=             -0.0046 ZZZX=              0.0504
 ZZZY=             -0.0235 XXYY=           -269.0426 XXZZ=           -242.6715 YYZZ=           -114.5067
 XXYZ=              0.0004 YYXZ=              0.0113 ZZXY=             -1.0471
 N-N= 4.576343409000D+02 E-N=-1.808898682545D+03  KE= 3.832965992171D+02
 Calculating spin-rotation constants.
 Leave Link  601 at Thu Nov 20 14:59:57 2025, MaxMem= 12079595520 cpu:              69.2 elap:               5.9
 (Enter /local/gaussian-16.A03/g16/l9999.exe)
 1\1\GINC-WUX39\SP\RwB97X\Aug-CC-pVDZ\C10H8\BUEHLERM\20-Nov-2025\0\\#p 
 nmr=giao wb97x/aug-cc-pvdz nosymm guess=save\\File Created by py.Aroma
  5\\0,1\C,0,2.435396,-0.689423,-0.000297\C,0,2.423759,0.72894,-0.00009
 2\C,0,1.23339,1.410747,0.000035\C,0,-0.005811,0.711485,0.000035\C,0,0.
 005804,-0.710637,0.000035\C,0,1.255946,-1.390177,-0.000159\C,0,-1.2330
 92,-1.410511,-0.000033\C,0,-2.423815,-0.729105,0.000089\C,0,-2.435341,
 0.689257,0.000299\C,0,-1.256251,1.390405,0.000171\H,0,3.387353,-1.2214
 41,-0.000526\H,0,3.367262,1.275875,-0.000214\H,0,1.22135,2.502001,0.00
 0272\H,0,1.262147,-2.481468,-0.000373\H,0,-1.221413,-2.501754,-0.00029
 2\H,0,-3.366958,-1.27661,0.000191\H,0,-3.387645,1.220703,0.000499\H,0,
 -1.26208,2.481712,0.000362\Bq,0,1.224652,0.010225,-1.000074\Bq,0,1.224
 842,0.010086,0.999926\Bq,0,-1.224685,-0.009924,1.000099\Bq,0,-1.224817
 ,-0.009778,-0.999901\Bq,0,-0.000001,0.000084,0.000007\Bq,0,1.224747,0.
 010156,-0.000074\Bq,0,-1.224751,-0.009851,0.000099\\Version=ES64L-G16R
 evA.03\HF=-385.8240847\RMSD=3.044e-09\Dipole=0.0000055,-0.0004398,-0.0
 000218\Quadrupole=3.3074637,3.0840556,-6.3915193,0.0016722,-0.0014708,
 0.001646\PG=C01 [X(C10H8)]\\@


 The theorems and results in mathematical physics are
 not theorems and results about Nature, but about our
 description of it.
                   --Gerard 't Hooft
 Job cpu time:       0 days  1 hours  7 minutes 40.2 seconds.
 Elapsed time:       0 days  0 hours  1 minutes 47.9 seconds.
 File lengths (MBytes):  RWF=     56 Int=      0 D2E=      0 Chk=      8 Scr=      1
 Normal termination of Gaussian 16 at Thu Nov 20 14:59:57 2025.
