[Molden Format]
[Atoms] Angs
 c       1                    6  2.267089506339e+00 -6.095408136068e-01  1.026680996798e+00
 c       2                    6  2.144601469687e+00  8.182562411652e-01  9.578170037679e-01
 c       3                    6  1.065322222939e+00  1.413477530815e+00  3.025510087776e-01
 n       4                    7  1.628124517008e-01  5.726924755874e-01 -2.527669653131e-01
 b       5                    5  1.581712827369e-01 -8.726240176148e-01 -2.106819790670e-01
 c       6                    6  1.335011841872e+00 -1.512637007266e+00  4.846392653984e-01
 c       7                    6 -1.233301712197e+00 -9.134947564578e-01 -1.052314151502e+00
 c       8                    6 -2.507406364686e+00 -6.507247500992e-01 -2.439518703445e-01
 c       9                    6 -2.371663033588e+00  7.058480178800e-01 -2.170452175141e-01
 c      10                    6 -1.090336021742e+00  6.778924500336e-01 -1.043916589719e+00
 h      11                    1  3.155084136231e+00 -9.985274075446e-01  1.540016898267e+00
 h      12                    1  2.906442680306e+00  1.454107291453e+00  1.414317512998e+00
 h      13                    1  9.350961627694e-01  2.496310781956e+00  2.059044914080e-01
 h      14                    1  1.541988815882e+00 -2.582855380518e+00  5.878537074884e-01
 h      15                    1 -1.322019789636e+00 -1.450287936365e+00 -2.006649863389e+00
 h      16                    1 -3.235703408536e+00 -1.334473763704e+00  1.998558069720e-01
 h      17                    1 -2.910829672426e+00  1.518652204328e+00  2.748581047032e-01
 h      18                    1 -1.000360567654e+00  1.267928839959e+00 -1.967168159728e+00
[GTO]
1
 s           8
      6.665000000000e+03      6.915839628130e-04
      1.000000000000e+03      5.325796152934e-03
      2.280000000000e+02      2.706072104203e-02
      6.471000000000e+01      1.016568461408e-01
      2.106000000000e+01      2.745748236174e-01
      7.495000000000e+00      4.482943189238e-01
      2.797000000000e+00      2.849026107152e-01
      5.215000000000e-01      1.519485920608e-02
 s           8
      6.665000000000e+03     -2.932696526865e-04
      1.000000000000e+03     -2.318035473975e-03
      2.280000000000e+02     -1.149978603857e-02
      6.471000000000e+01     -4.682672700979e-02
      2.106000000000e+01     -1.284661687505e-01
      7.495000000000e+00     -3.012662724629e-01
      2.797000000000e+00     -2.556307023301e-01
      5.215000000000e-01      1.093793361012e+00
 s           1
      1.596000000000e-01      1.000000000000e+00
 s           1
      4.690000000000e-02      1.000000000000e+00
 p           3
      9.439000000000e+00      5.697925159004e-02
      2.002000000000e+00      3.132072115007e-01
      5.456000000000e-01      7.603767417375e-01
 p           1
      1.517000000000e-01      1.000000000000e+00
 p           1
      4.041000000000e-02      1.000000000000e+00
 d           1
      5.500000000000e-01      1.000000000000e+00
 d           1
      1.510000000000e-01      1.000000000000e+00

2
 s           8
      6.665000000000e+03      6.915839628130e-04
      1.000000000000e+03      5.325796152934e-03
      2.280000000000e+02      2.706072104203e-02
      6.471000000000e+01      1.016568461408e-01
      2.106000000000e+01      2.745748236174e-01
      7.495000000000e+00      4.482943189238e-01
      2.797000000000e+00      2.849026107152e-01
      5.215000000000e-01      1.519485920608e-02
 s           8
      6.665000000000e+03     -2.932696526865e-04
      1.000000000000e+03     -2.318035473975e-03
      2.280000000000e+02     -1.149978603857e-02
      6.471000000000e+01     -4.682672700979e-02
      2.106000000000e+01     -1.284661687505e-01
      7.495000000000e+00     -3.012662724629e-01
      2.797000000000e+00     -2.556307023301e-01
      5.215000000000e-01      1.093793361012e+00
 s           1
      1.596000000000e-01      1.000000000000e+00
 s           1
      4.690000000000e-02      1.000000000000e+00
 p           3
      9.439000000000e+00      5.697925159004e-02
      2.002000000000e+00      3.132072115007e-01
      5.456000000000e-01      7.603767417375e-01
 p           1
      1.517000000000e-01      1.000000000000e+00
 p           1
      4.041000000000e-02      1.000000000000e+00
 d           1
      5.500000000000e-01      1.000000000000e+00
 d           1
      1.510000000000e-01      1.000000000000e+00

3
 s           8
      6.665000000000e+03      6.915839628130e-04
      1.000000000000e+03      5.325796152934e-03
      2.280000000000e+02      2.706072104203e-02
      6.471000000000e+01      1.016568461408e-01
      2.106000000000e+01      2.745748236174e-01
      7.495000000000e+00      4.482943189238e-01
      2.797000000000e+00      2.849026107152e-01
      5.215000000000e-01      1.519485920608e-02
 s           8
      6.665000000000e+03     -2.932696526865e-04
      1.000000000000e+03     -2.318035473975e-03
      2.280000000000e+02     -1.149978603857e-02
      6.471000000000e+01     -4.682672700979e-02
      2.106000000000e+01     -1.284661687505e-01
      7.495000000000e+00     -3.012662724629e-01
      2.797000000000e+00     -2.556307023301e-01
      5.215000000000e-01      1.093793361012e+00
 s           1
      1.596000000000e-01      1.000000000000e+00
 s           1
      4.690000000000e-02      1.000000000000e+00
 p           3
      9.439000000000e+00      5.697925159004e-02
      2.002000000000e+00      3.132072115007e-01
      5.456000000000e-01      7.603767417375e-01
 p           1
      1.517000000000e-01      1.000000000000e+00
 p           1
      4.041000000000e-02      1.000000000000e+00
 d           1
      5.500000000000e-01      1.000000000000e+00
 d           1
      1.510000000000e-01      1.000000000000e+00

4
 s           8
      9.046000000000e+03      6.996174134255e-04
      1.357000000000e+03      5.386054629929e-03
      3.093000000000e+02      2.739102118906e-02
      8.773000000000e+01      1.031505919820e-01
      2.856000000000e+01      2.785706633174e-01
      1.021000000000e+01      4.482948494541e-01
      3.838000000000e+00      2.780859283953e-01
      7.466000000000e-01      1.543156123327e-02
 s           8
      9.046000000000e+03     -3.049900959534e-04
      1.357000000000e+03     -2.408026378508e-03
      3.093000000000e+02     -1.194444872518e-02
      8.773000000000e+01     -4.892599290902e-02
      2.856000000000e+01     -1.344727247250e-01
      1.021000000000e+01     -3.151125777001e-01
      3.838000000000e+00     -2.428578325496e-01
      7.466000000000e-01      1.094382206854e+00
 s           1
      2.248000000000e-01      1.000000000000e+00
 s           1
      6.124000000000e-02      1.000000000000e+00
 p           3
      1.355000000000e+01      5.890567677213e-02
      2.917000000000e+00      3.204611067143e-01
      7.973000000000e-01      7.530420617921e-01
 p           1
      2.185000000000e-01      1.000000000000e+00
 p           1
      5.611000000000e-02      1.000000000000e+00
 d           1
      8.170000000000e-01      1.000000000000e+00
 d           1
      2.300000000000e-01      1.000000000000e+00

5
 s           8
      4.570000000000e+03      6.955544180306e-04
      6.859000000000e+02      5.349572988100e-03
      1.565000000000e+02      2.711662870523e-02
      4.447000000000e+01      1.013150961206e-01
      1.448000000000e+01      2.718808293065e-01
      5.131000000000e+00      4.481159306152e-01
      1.898000000000e+00      2.899372621010e-01
      3.329000000000e-01      1.431283099861e-02
 s           8
      4.570000000000e+03     -2.812802240142e-04
      6.859000000000e+02     -2.219887811105e-03
      1.565000000000e+02     -1.101647150743e-02
      4.447000000000e+01     -4.434918985248e-02
      1.448000000000e+01     -1.209120479502e-01
      5.131000000000e+00     -2.807378995535e-01
      1.898000000000e+00     -2.660668087326e-01
      3.329000000000e-01      1.091784130514e+00
 s           1
      1.043000000000e-01      1.000000000000e+00
 s           1
      3.105000000000e-02      1.000000000000e+00
 p           3
      6.001000000000e+00      5.416586334015e-02
      1.241000000000e+00      3.023798901809e-01
      3.364000000000e-01      7.712922165481e-01
 p           1
      9.538000000000e-02      1.000000000000e+00
 p           1
      2.378000000000e-02      1.000000000000e+00
 d           1
      3.430000000000e-01      1.000000000000e+00
 d           1
      9.040000000000e-02      1.000000000000e+00

6
 s           8
      6.665000000000e+03      6.915839628130e-04
      1.000000000000e+03      5.325796152934e-03
      2.280000000000e+02      2.706072104203e-02
      6.471000000000e+01      1.016568461408e-01
      2.106000000000e+01      2.745748236174e-01
      7.495000000000e+00      4.482943189238e-01
      2.797000000000e+00      2.849026107152e-01
      5.215000000000e-01      1.519485920608e-02
 s           8
      6.665000000000e+03     -2.932696526865e-04
      1.000000000000e+03     -2.318035473975e-03
      2.280000000000e+02     -1.149978603857e-02
      6.471000000000e+01     -4.682672700979e-02
      2.106000000000e+01     -1.284661687505e-01
      7.495000000000e+00     -3.012662724629e-01
      2.797000000000e+00     -2.556307023301e-01
      5.215000000000e-01      1.093793361012e+00
 s           1
      1.596000000000e-01      1.000000000000e+00
 s           1
      4.690000000000e-02      1.000000000000e+00
 p           3
      9.439000000000e+00      5.697925159004e-02
      2.002000000000e+00      3.132072115007e-01
      5.456000000000e-01      7.603767417375e-01
 p           1
      1.517000000000e-01      1.000000000000e+00
 p           1
      4.041000000000e-02      1.000000000000e+00
 d           1
      5.500000000000e-01      1.000000000000e+00
 d           1
      1.510000000000e-01      1.000000000000e+00

7
 s           8
      6.665000000000e+03      6.915839628130e-04
      1.000000000000e+03      5.325796152934e-03
      2.280000000000e+02      2.706072104203e-02
      6.471000000000e+01      1.016568461408e-01
      2.106000000000e+01      2.745748236174e-01
      7.495000000000e+00      4.482943189238e-01
      2.797000000000e+00      2.849026107152e-01
      5.215000000000e-01      1.519485920608e-02
 s           8
      6.665000000000e+03     -2.932696526865e-04
      1.000000000000e+03     -2.318035473975e-03
      2.280000000000e+02     -1.149978603857e-02
      6.471000000000e+01     -4.682672700979e-02
      2.106000000000e+01     -1.284661687505e-01
      7.495000000000e+00     -3.012662724629e-01
      2.797000000000e+00     -2.556307023301e-01
      5.215000000000e-01      1.093793361012e+00
 s           1
      1.596000000000e-01      1.000000000000e+00
 s           1
      4.690000000000e-02      1.000000000000e+00
 p           3
      9.439000000000e+00      5.697925159004e-02
      2.002000000000e+00      3.132072115007e-01
      5.456000000000e-01      7.603767417375e-01
 p           1
      1.517000000000e-01      1.000000000000e+00
 p           1
      4.041000000000e-02      1.000000000000e+00
 d           1
      5.500000000000e-01      1.000000000000e+00
 d           1
      1.510000000000e-01      1.000000000000e+00

8
 s           8
      6.665000000000e+03      6.915839628130e-04
      1.000000000000e+03      5.325796152934e-03
      2.280000000000e+02      2.706072104203e-02
      6.471000000000e+01      1.016568461408e-01
      2.106000000000e+01      2.745748236174e-01
      7.495000000000e+00      4.482943189238e-01
      2.797000000000e+00      2.849026107152e-01
      5.215000000000e-01      1.519485920608e-02
 s           8
      6.665000000000e+03     -2.932696526865e-04
      1.000000000000e+03     -2.318035473975e-03
      2.280000000000e+02     -1.149978603857e-02
      6.471000000000e+01     -4.682672700979e-02
      2.106000000000e+01     -1.284661687505e-01
      7.495000000000e+00     -3.012662724629e-01
      2.797000000000e+00     -2.556307023301e-01
      5.215000000000e-01      1.093793361012e+00
 s           1
      1.596000000000e-01      1.000000000000e+00
 s           1
      4.690000000000e-02      1.000000000000e+00
 p           3
      9.439000000000e+00      5.697925159004e-02
      2.002000000000e+00      3.132072115007e-01
      5.456000000000e-01      7.603767417375e-01
 p           1
      1.517000000000e-01      1.000000000000e+00
 p           1
      4.041000000000e-02      1.000000000000e+00
 d           1
      5.500000000000e-01      1.000000000000e+00
 d           1
      1.510000000000e-01      1.000000000000e+00

9
 s           8
      6.665000000000e+03      6.915839628130e-04
      1.000000000000e+03      5.325796152934e-03
      2.280000000000e+02      2.706072104203e-02
      6.471000000000e+01      1.016568461408e-01
      2.106000000000e+01      2.745748236174e-01
      7.495000000000e+00      4.482943189238e-01
      2.797000000000e+00      2.849026107152e-01
      5.215000000000e-01      1.519485920608e-02
 s           8
      6.665000000000e+03     -2.932696526865e-04
      1.000000000000e+03     -2.318035473975e-03
      2.280000000000e+02     -1.149978603857e-02
      6.471000000000e+01     -4.682672700979e-02
      2.106000000000e+01     -1.284661687505e-01
      7.495000000000e+00     -3.012662724629e-01
      2.797000000000e+00     -2.556307023301e-01
      5.215000000000e-01      1.093793361012e+00
 s           1
      1.596000000000e-01      1.000000000000e+00
 s           1
      4.690000000000e-02      1.000000000000e+00
 p           3
      9.439000000000e+00      5.697925159004e-02
      2.002000000000e+00      3.132072115007e-01
      5.456000000000e-01      7.603767417375e-01
 p           1
      1.517000000000e-01      1.000000000000e+00
 p           1
      4.041000000000e-02      1.000000000000e+00
 d           1
      5.500000000000e-01      1.000000000000e+00
 d           1
      1.510000000000e-01      1.000000000000e+00

10
 s           8
      6.665000000000e+03      6.915839628130e-04
      1.000000000000e+03      5.325796152934e-03
      2.280000000000e+02      2.706072104203e-02
      6.471000000000e+01      1.016568461408e-01
      2.106000000000e+01      2.745748236174e-01
      7.495000000000e+00      4.482943189238e-01
      2.797000000000e+00      2.849026107152e-01
      5.215000000000e-01      1.519485920608e-02
 s           8
      6.665000000000e+03     -2.932696526865e-04
      1.000000000000e+03     -2.318035473975e-03
      2.280000000000e+02     -1.149978603857e-02
      6.471000000000e+01     -4.682672700979e-02
      2.106000000000e+01     -1.284661687505e-01
      7.495000000000e+00     -3.012662724629e-01
      2.797000000000e+00     -2.556307023301e-01
      5.215000000000e-01      1.093793361012e+00
 s           1
      1.596000000000e-01      1.000000000000e+00
 s           1
      4.690000000000e-02      1.000000000000e+00
 p           3
      9.439000000000e+00      5.697925159004e-02
      2.002000000000e+00      3.132072115007e-01
      5.456000000000e-01      7.603767417375e-01
 p           1
      1.517000000000e-01      1.000000000000e+00
 p           1
      4.041000000000e-02      1.000000000000e+00
 d           1
      5.500000000000e-01      1.000000000000e+00
 d           1
      1.510000000000e-01      1.000000000000e+00

11
 s           3
      1.301000000000e+01      3.349872639000e-02
      1.962000000000e+00      2.348008011741e-01
      4.446000000000e-01      8.136829578829e-01
 s           1
      1.220000000000e-01      1.000000000000e+00
 s           1
      2.974000000000e-02      1.000000000000e+00
 p           1
      7.270000000000e-01      1.000000000000e+00
 p           1
      1.410000000000e-01      1.000000000000e+00

12
 s           3
      1.301000000000e+01      3.349872639000e-02
      1.962000000000e+00      2.348008011741e-01
      4.446000000000e-01      8.136829578829e-01
 s           1
      1.220000000000e-01      1.000000000000e+00
 s           1
      2.974000000000e-02      1.000000000000e+00
 p           1
      7.270000000000e-01      1.000000000000e+00
 p           1
      1.410000000000e-01      1.000000000000e+00

13
 s           3
      1.301000000000e+01      3.349872639000e-02
      1.962000000000e+00      2.348008011741e-01
      4.446000000000e-01      8.136829578829e-01
 s           1
      1.220000000000e-01      1.000000000000e+00
 s           1
      2.974000000000e-02      1.000000000000e+00
 p           1
      7.270000000000e-01      1.000000000000e+00
 p           1
      1.410000000000e-01      1.000000000000e+00

14
 s           3
      1.301000000000e+01      3.349872639000e-02
      1.962000000000e+00      2.348008011741e-01
      4.446000000000e-01      8.136829578829e-01
 s           1
      1.220000000000e-01      1.000000000000e+00
 s           1
      2.974000000000e-02      1.000000000000e+00
 p           1
      7.270000000000e-01      1.000000000000e+00
 p           1
      1.410000000000e-01      1.000000000000e+00

15
 s           3
      1.301000000000e+01      3.349872639000e-02
      1.962000000000e+00      2.348008011741e-01
      4.446000000000e-01      8.136829578829e-01
 s           1
      1.220000000000e-01      1.000000000000e+00
 s           1
      2.974000000000e-02      1.000000000000e+00
 p           1
      7.270000000000e-01      1.000000000000e+00
 p           1
      1.410000000000e-01      1.000000000000e+00

16
 s           3
      1.301000000000e+01      3.349872639000e-02
      1.962000000000e+00      2.348008011741e-01
      4.446000000000e-01      8.136829578829e-01
 s           1
      1.220000000000e-01      1.000000000000e+00
 s           1
      2.974000000000e-02      1.000000000000e+00
 p           1
      7.270000000000e-01      1.000000000000e+00
 p           1
      1.410000000000e-01      1.000000000000e+00

17
 s           3
      1.301000000000e+01      3.349872639000e-02
      1.962000000000e+00      2.348008011741e-01
      4.446000000000e-01      8.136829578829e-01
 s           1
      1.220000000000e-01      1.000000000000e+00
 s           1
      2.974000000000e-02      1.000000000000e+00
 p           1
      7.270000000000e-01      1.000000000000e+00
 p           1
      1.410000000000e-01      1.000000000000e+00

18
 s           3
      1.301000000000e+01      3.349872639000e-02
      1.962000000000e+00      2.348008011741e-01
      4.446000000000e-01      8.136829578829e-01
 s           1
      1.220000000000e-01      1.000000000000e+00
 s           1
      2.974000000000e-02      1.000000000000e+00
 p           1
      7.270000000000e-01      1.000000000000e+00
 p           1
      1.410000000000e-01      1.000000000000e+00


[5D]
[7F]
[9G]
[MO]
 Ene=  -15.596466
 Spin=  Alpha
 Occup=    2.000000
   1    -0.0000322819812360
   2    -0.0000654979465521
   3     0.0013507737481804
   4     0.0084611962890089
   5     0.0000148103504382
   6    -0.0000107062434289
   7     0.0000141691760780
   8    -0.0000212445757835
   9     0.0038477254135971
  10    -0.0000617753848258
  11    -0.0029266929609953
  12    -0.0041697583463518
  13    -0.0016676632541942
  14     0.0000086724222242
  15    -0.0000335074194408
  16     0.0000239367095039
  17    -0.0000201102364263
  18     0.0000328484374794
  19    -0.0001263630956141
  20     0.0000351562528874
  21    -0.0007074325563662
  22    -0.0002133447231356
  23    -0.0010934343661781
  24    -0.0000169024548621
  25    -0.0000476544996570
  26     0.0026674007610956
  27    -0.0091211863780395
  28     0.0001055423465935
  29    -0.0000274112860738
  30     0.0000761269633041
  31    -0.0004308413929040
  32     0.0047820057890710
  33    -0.0002163387741477
  34     0.0041852122608794
  35    -0.0014560844046726
  36     0.0024532430037767
  37    -0.0000333430720272
  38    -0.0000358128380184
  39     0.0000276878048928
  40    -0.0000867961669752
  41     0.0000315851742941
  42     0.0005141811397136
  43     0.0000376639351492
  44    -0.0006150418998735
  45     0.0009589062998063
  46    -0.0008644569608042
  47     0.0003482490000975
  48     0.0005237571429788
  49     0.0060648150317989
  50     0.0212305779748661
  51    -0.0002850863656991
  52    -0.0002340127062073
  53    -0.0001507726926847
  54    -0.0069078556663098
  55    -0.0060989518718759
  56    -0.0043601886418755
  57     0.0011821270704298
  58    -0.0038030370701437
  59     0.0006943805321951
  60    -0.0000436866279431
  61    -0.0000856753555910
  62    -0.0001774333244991
  63    -0.0001390902205550
  64    -0.0003045308947111
  65    -0.0009813319999498
  66     0.0004091197081083
  67     0.0021466647406922
  68    -0.0014738955221128
  69     0.0033647261219301
  70     1.0031773569051687
  71     0.0056343400691312
  72    -0.0260925945107273
  73    -0.0090391963468136
  74    -0.0000573102334509
  75     0.0006883832466359
  76     0.0000681155098262
  77     0.0016090137763477
  78    -0.0027466876476258
  79     0.0003415128913767
  80    -0.0007958920091200
  81    -0.0035376024601107
  82    -0.0001819776159637
  83    -0.0001484681660130
  84     0.0001951947399088
  85     0.0001480249331399
  86    -0.0000181936507515
  87     0.0002463058889135
  88     0.0007004704678419
  89    -0.0021262288610254
  90    -0.0011133045058578
  91    -0.0017337255859907
  92    -0.0017873389312058
  93     0.0001710971929613
  94     0.0003307168445600
  95    -0.0016035139050278
  96    -0.0037030217172282
  97    -0.0001119595424824
  98     0.0002633921004122
  99    -0.0000719231617866
 100    -0.0000572797057978
 101    -0.0033708648953490
 102    -0.0004084950296906
 103     0.0001549662417086
 104     0.0000466363440212
 105     0.0001247457712669
 106    -0.0000117666470595
 107     0.0000642873943847
 108    -0.0001062487747742
 109     0.0000176974201699
 110    -0.0001756746215971
 111     0.0003398132872131
 112     0.0013983247416236
 113    -0.0011818818280295
 114     0.0020338449120215
 115    -0.0021022065916378
 116     0.0000074372710458
 117    -0.0000077960615317
 118     0.0005064925208331
 119    -0.0119186847475785
 120     0.0000234433267695
 121    -0.0000474969780985
 122     0.0000096951529313
 123     0.0018212051308275
 124     0.0009005361629847
 125     0.0011305409761425
 126    -0.0027120444477578
 127    -0.0019677102660356
 128    -0.0016398866614366
 129     0.0000403441207058
 130    -0.0000394631124556
 131     0.0000264950634746
 132     0.0000143384777693
 133     0.0000427871702349
 134    -0.0000962812989274
 135     0.0003531009142892
 136     0.0002163745593127
 137     0.0003817825078339
 138     0.0003609157921831
 139    -0.0000320445318417
 140    -0.0000446160378911
 141    -0.0031883323990719
 142     0.0066017776305043
 143    -0.0000357916109921
 144    -0.0001170094331301
 145     0.0000370213233888
 146    -0.0017175658805086
 147    -0.0017652665479762
 148    -0.0016540916637326
 149     0.0000292828501644
 150     0.0009965401921763
 151     0.0010566863814729
 152    -0.0000405523732073
 153     0.0000502816397657
 154    -0.0000008402326947
 155     0.0000638375080165
 156     0.0000333166717194
 157     0.0000737107552403
 158     0.0001579239058586
 159    -0.0003552675174725
 160    -0.0001183430856258
 161    -0.0009077441706455
 162     0.0001321767945625
 163     0.0002169659828750
 164    -0.0037849015560757
 165    -0.0017339718003388
 166     0.0000483650991549
 167    -0.0000284589561467
 168    -0.0000385104575063
 169    -0.0003232902980108
 170    -0.0031291879570554
 171     0.0005406355523367
 172    -0.0006974851149744
 173    -0.0000875941668527
 174     0.0002952329389178
 175     0.0000687346814571
 176     0.0000095279515350
 177    -0.0000192565526803
 178     0.0000035347738784
 179    -0.0000631644404877
 180     0.0001534151803783
 181    -0.0001792460283093
 182     0.0001219970558357
 183     0.0005887531288869
 184     0.0000977121400538
 185     0.0000163893548573
 186     0.0000016369956776
 187     0.0046082676050810
 188     0.0004980445079582
 189    -0.0000475693269555
 190     0.0000061033473971
 191    -0.0000183030100634
 192    -0.0007363701496047
 193    -0.0032680094766237
 194    -0.0011396098151678
 195     0.0000732436014153
 196     0.0000480549749324
 197    -0.0001080388955926
 198     0.0000918666732768
 199     0.0000430279443744
 200    -0.0000264138826318
 201    -0.0001662645805297
 202     0.0000490677109549
 203    -0.0001994568477043
 204     0.0000448362415576
 205     0.0004434726941105
 206    -0.0012261873657234
 207     0.0004468611139389
 208    -0.0001599036442926
 209    -0.0002557717649429
 210     0.0088716134750398
 211    -0.0025240703154136
 212     0.0003610312374898
 213     0.0000800546002623
 214     0.0002235227342802
 215     0.0077366651282315
 216    -0.0038880053700533
 217     0.0066497111512543
 218     0.0004789867598527
 219     0.0011060829888766
 220     0.0002750568628075
 221     0.0000292907896773
 222     0.0000082879053125
 223    -0.0001008087497788
 224     0.0001525523245309
 225     0.0000244673351717
 226     0.0000680739481604
 227     0.0036840559638171
 228    -0.0011845467755822
 229    -0.0000122259590486
 230    -0.0023434171751425
 231     0.0000093501328558
 232    -0.0002809147476949
 233     0.0003327751035567
 234    -0.0000209062196503
 235     0.0000043500840697
 236    -0.0000130106710874
 237     0.0000456694093457
 238     0.0002764314835703
 239     0.0000107043871802
 240    -0.0000439849914345
 241    -0.0019478150973830
 242    -0.0006315068550665
 243     0.0000345145456266
 244     0.0000021810740174
 245     0.0000201225930978
 246     0.0006072952276976
 247     0.0004427832470423
 248     0.0004006556722968
 249    -0.0003234104325666
 250     0.0013433350066782
 251     0.0012370235462606
 252     0.0000454160446954
 253     0.0002006035724865
 254     0.0000219269424081
 255    -0.0009994005224468
 256    -0.0007386269901723
 257    -0.0006357888730739
 258     0.0000670521984133
 259     0.0003408530370972
 260    -0.0005317743470609
 261    -0.0000068518112971
 262     0.0000245876319557
 263    -0.0000071847722600
 264    -0.0000486530975437
 265    -0.0001037574461556
 266    -0.0000089944701993
 267     0.0000582318852595
 268    -0.0023648399800871
 269     0.0010113941734447
 270     0.0000499581116142
 271     0.0000308927519003
 272     0.0000151760922162
 273    -0.0000019685851543
 274    -0.0003341885538456
 275    -0.0005359736646288
 276     0.0000081151203567
 277    -0.0018840023155891
 278    -0.0002339081203898
 279     0.0000189223687368
 280     0.0000204235929873
 281    -0.0000329468178020
 282    -0.0003731411415229
 283    -0.0003370633785989
 284     0.0002050405406348
 285    -0.0000219487093422
 286     0.0017941691484637
 287    -0.0001527872530355
 288    -0.0000091761721843
 289    -0.0000300095726484
 290    -0.0000234658936890
 291     0.0002569014418170
 292    -0.0006056486184364
 293    -0.0003475513840290
 294    -0.0001423202255511
 295     0.0038035016654935
 296     0.0000067582814671
 297    -0.0000266346933241
 298     0.0000526419710209
 299    -0.0001384902287205
 300     0.0010596041603537
 301    -0.0005770180802473
 302     0.0007547294113928
 Ene=  -11.286063
 Spin=  Alpha
 Occup=    2.000000
   1     0.0000979924375749
   2     0.0001506199243760
   3    -0.0064507337089705
   4     0.0030019934098138
   5     0.0000203210563759
   6    -0.0000213180159912
   7     0.0000034107637858
   8     0.0024377492646585
   9    -0.0050140872407829
  10     0.0014562134852017
  11     0.0005302842986939
  12     0.0002828983521613
  13     0.0004304602292803
  14     0.0000519336550550
  15    -0.0000769154551813
  16     0.0000128473806059
  17    -0.0000099232949832
  18     0.0000151794955556
  19    -0.0001559149134656
  20     0.0000511790098728
  21     0.0005231295858445
  22    -0.0001071998896851
  23     0.0009572759571978
  24    -0.0010035857774815
  25    -0.0000756094223036
  26    -0.0060166700862815
  27     0.0050907058301081
  28     0.0000213414328808
  29     0.0000498651623497
  30     0.0000040861809002
  31     0.0051257560980699
  32    -0.0063030953541983
  33     0.0028624747202481
  34    -0.0006665703395159
  35     0.0021592070190295
  36    -0.0005571870296920
  37    -0.0000228878633806
  38    -0.0000239380749429
  39    -0.0000310771312329
  40    -0.0000744447357282
  41    -0.0000648765258970
  42    -0.0007573512054185
  43    -0.0007829384534322
  44     0.0010879165476653
  45    -0.0023446166967258
  46     0.0019234532662808
  47    -0.0828068620125287
  48    -0.0006979696943793
  49     0.0087081823850090
  50    -0.0097999614025055
  51     0.0001174382299099
  52     0.0000764456064597
  53     0.0000964515783314
  54     0.0084195496776443
  55    -0.0033492177283962
  56     0.0053362901935276
  57    -0.0027242340157602
  58     0.0025035202376945
  59    -0.0016086924795527
  60    -0.0000721144056122
  61    -0.0001478625426106
  62    -0.0000281082609245
  63    -0.0002338504386710
  64    -0.0000173300214232
  65    -0.0002449332863533
  66     0.0000253789769741
  67    -0.0016985632657543
  68    -0.0006746294821488
  69    -0.0023766185338752
  70     0.0000620359843673
  71     0.0004011245332383
  72     0.0034737528518870
  73     0.0148203174540456
  74    -0.0003992596501825
  75     0.0000032444604071
  76    -0.0002152121301001
  77     0.0009818697646214
  78     0.0010922314886919
  79     0.0012699733682766
  80     0.0052912956957539
  81    -0.0029209938018799
  82     0.0042792349035367
  83    -0.0000020853293371
  84    -0.0000214994009068
  85    -0.0000151886487941
  86    -0.0000155808014201
  87    -0.0000543718100407
  88    -0.0002286771876550
  89    -0.0018538823584215
  90     0.0001499237316335
  91    -0.0013578654575523
  92     0.0005034103431884
  93    -0.0005459422799582
  94    -0.0008924273923819
  95     0.0032511000354536
  96     0.0010589879603146
  97     0.0000627954358211