[Molden Format]
[Atoms] Angs
 c       1                    6  2.431080054582e+00 -6.686019785305e-01  6.727147096166e-01
 c       2                    6  2.304978048838e+00  7.588983782430e-01  7.076902854876e-01
 c       3                    6  1.117044858865e+00  1.380992942298e+00  3.973809838079e-01
 n       4                    7 -6.102722661028e-03  6.580678656124e-01  1.162370913619e-02
 b       5                    5  4.983058994117e-03 -8.216128716631e-01 -4.193412231304e-03
 c       6                    6  1.346331742920e+00 -1.468896779945e+00  3.401653104975e-01
 c       7                    6 -1.319786260020e+00 -1.490541601328e+00 -3.884779410116e-01
 c       8                    6 -2.432023133044e+00 -7.061343841773e-01 -6.519343512086e-01
 c       9                    6 -2.323935039367e+00  7.275866179197e-01 -6.557012819948e-01
 c      10                    6 -1.137842976739e+00  1.363469733957e+00 -3.735165588482e-01
 h      11                    1  3.407770702444e+00 -1.102383268990e+00  9.073144332384e-01
 h      12                    1  3.154260881860e+00  1.387001398119e+00  9.865171483294e-01
 h      13                    1  9.978266433633e-01  2.467531601315e+00  4.282205064984e-01
 h      14                    1  1.487725935196e+00 -2.555355282220e+00  3.310155860582e-01
 h      15                    1 -1.418929878352e+00 -2.578010069098e+00 -4.690590540308e-01
 h      16                    1 -3.402510047344e+00 -1.152094346958e+00 -8.969745897283e-01
 h      17                    1 -3.191889465128e+00  1.350527256598e+00 -8.900528626805e-01
 h      18                    1 -1.018982404406e+00  2.449554788848e+00 -4.527326209382e-01
[GTO]
1
 s           8
      6.665000000000e+03      6.915839628130e-04
      1.000000000000e+03      5.325796152934e-03
      2.280000000000e+02      2.706072104203e-02
      6.471000000000e+01      1.016568461408e-01
      2.106000000000e+01      2.745748236174e-01
      7.495000000000e+00      4.482943189238e-01
      2.797000000000e+00      2.849026107152e-01
      5.215000000000e-01      1.519485920608e-02
 s           8
      6.665000000000e+03     -2.932696526865e-04
      1.000000000000e+03     -2.318035473975e-03
      2.280000000000e+02     -1.149978603857e-02
      6.471000000000e+01     -4.682672700979e-02
      2.106000000000e+01     -1.284661687505e-01
      7.495000000000e+00     -3.012662724629e-01
      2.797000000000e+00     -2.556307023301e-01
      5.215000000000e-01      1.093793361012e+00
 s           1
      1.596000000000e-01      1.000000000000e+00
 s           1
      4.690000000000e-02      1.000000000000e+00
 p           3
      9.439000000000e+00      5.697925159004e-02
      2.002000000000e+00      3.132072115007e-01
      5.456000000000e-01      7.603767417375e-01
 p           1
      1.517000000000e-01      1.000000000000e+00
 p           1
      4.041000000000e-02      1.000000000000e+00
 d           1
      5.500000000000e-01      1.000000000000e+00
 d           1
      1.510000000000e-01      1.000000000000e+00

2
 s           8
      6.665000000000e+03      6.915839628130e-04
      1.000000000000e+03      5.325796152934e-03
      2.280000000000e+02      2.706072104203e-02
      6.471000000000e+01      1.016568461408e-01
      2.106000000000e+01      2.745748236174e-01
      7.495000000000e+00      4.482943189238e-01
      2.797000000000e+00      2.849026107152e-01
      5.215000000000e-01      1.519485920608e-02
 s           8
      6.665000000000e+03     -2.932696526865e-04
      1.000000000000e+03     -2.318035473975e-03
      2.280000000000e+02     -1.149978603857e-02
      6.471000000000e+01     -4.682672700979e-02
      2.106000000000e+01     -1.284661687505e-01
      7.495000000000e+00     -3.012662724629e-01
      2.797000000000e+00     -2.556307023301e-01
      5.215000000000e-01      1.093793361012e+00
 s           1
      1.596000000000e-01      1.000000000000e+00
 s           1
      4.690000000000e-02      1.000000000000e+00
 p           3
      9.439000000000e+00      5.697925159004e-02
      2.002000000000e+00      3.132072115007e-01
      5.456000000000e-01      7.603767417375e-01
 p           1
      1.517000000000e-01      1.000000000000e+00
 p           1
      4.041000000000e-02      1.000000000000e+00
 d           1
      5.500000000000e-01      1.000000000000e+00
 d           1
      1.510000000000e-01      1.000000000000e+00

3
 s           8
      6.665000000000e+03      6.915839628130e-04
      1.000000000000e+03      5.325796152934e-03
      2.280000000000e+02      2.706072104203e-02
      6.471000000000e+01      1.016568461408e-01
      2.106000000000e+01      2.745748236174e-01
      7.495000000000e+00      4.482943189238e-01
      2.797000000000e+00      2.849026107152e-01
      5.215000000000e-01      1.519485920608e-02
 s           8
      6.665000000000e+03     -2.932696526865e-04
      1.000000000000e+03     -2.318035473975e-03
      2.280000000000e+02     -1.149978603857e-02
      6.471000000000e+01     -4.682672700979e-02
      2.106000000000e+01     -1.284661687505e-01
      7.495000000000e+00     -3.012662724629e-01
      2.797000000000e+00     -2.556307023301e-01
      5.215000000000e-01      1.093793361012e+00
 s           1
      1.596000000000e-01      1.000000000000e+00
 s           1
      4.690000000000e-02      1.000000000000e+00
 p           3
      9.439000000000e+00      5.697925159004e-02
      2.002000000000e+00      3.132072115007e-01
      5.456000000000e-01      7.603767417375e-01
 p           1
      1.517000000000e-01      1.000000000000e+00
 p           1
      4.041000000000e-02      1.000000000000e+00
 d           1
      5.500000000000e-01      1.000000000000e+00
 d           1
      1.510000000000e-01      1.000000000000e+00

4
 s           8
      9.046000000000e+03      6.996174134255e-04
      1.357000000000e+03      5.386054629929e-03
      3.093000000000e+02      2.739102118906e-02
      8.773000000000e+01      1.031505919820e-01
      2.856000000000e+01      2.785706633174e-01
      1.021000000000e+01      4.482948494541e-01
      3.838000000000e+00      2.780859283953e-01
      7.466000000000e-01      1.543156123327e-02
 s           8
      9.046000000000e+03     -3.049900959534e-04
      1.357000000000e+03     -2.408026378508e-03
      3.093000000000e+02     -1.194444872518e-02
      8.773000000000e+01     -4.892599290902e-02
      2.856000000000e+01     -1.344727247250e-01
      1.021000000000e+01     -3.151125777001e-01
      3.838000000000e+00     -2.428578325496e-01
      7.466000000000e-01      1.094382206854e+00
 s           1
      2.248000000000e-01      1.000000000000e+00
 s           1
      6.124000000000e-02      1.000000000000e+00
 p           3
      1.355000000000e+01      5.890567677213e-02
      2.917000000000e+00      3.204611067143e-01
      7.973000000000e-01      7.530420617921e-01
 p           1
      2.185000000000e-01      1.000000000000e+00
 p           1
      5.611000000000e-02      1.000000000000e+00
 d           1
      8.170000000000e-01      1.000000000000e+00
 d           1
      2.300000000000e-01      1.000000000000e+00

5
 s           8
      4.570000000000e+03      6.955544180306e-04
      6.859000000000e+02      5.349572988100e-03
      1.565000000000e+02      2.711662870523e-02
      4.447000000000e+01      1.013150961206e-01
      1.448000000000e+01      2.718808293065e-01
      5.131000000000e+00      4.481159306152e-01
      1.898000000000e+00      2.899372621010e-01
      3.329000000000e-01      1.431283099861e-02
 s           8
      4.570000000000e+03     -2.812802240142e-04
      6.859000000000e+02     -2.219887811105e-03
      1.565000000000e+02     -1.101647150743e-02
      4.447000000000e+01     -4.434918985248e-02
      1.448000000000e+01     -1.209120479502e-01
      5.131000000000e+00     -2.807378995535e-01
      1.898000000000e+00     -2.660668087326e-01
      3.329000000000e-01      1.091784130514e+00
 s           1
      1.043000000000e-01      1.000000000000e+00
 s           1
      3.105000000000e-02      1.000000000000e+00
 p           3
      6.001000000000e+00      5.416586334015e-02
      1.241000000000e+00      3.023798901809e-01
      3.364000000000e-01      7.712922165481e-01
 p           1
      9.538000000000e-02      1.000000000000e+00
 p           1
      2.378000000000e-02      1.000000000000e+00
 d           1
      3.430000000000e-01      1.000000000000e+00
 d           1
      9.040000000000e-02      1.000000000000e+00

6
 s           8
      6.665000000000e+03      6.915839628130e-04
      1.000000000000e+03      5.325796152934e-03
      2.280000000000e+02      2.706072104203e-02
      6.471000000000e+01      1.016568461408e-01
      2.106000000000e+01      2.745748236174e-01
      7.495000000000e+00      4.482943189238e-01
      2.797000000000e+00      2.849026107152e-01
      5.215000000000e-01      1.519485920608e-02
 s           8
      6.665000000000e+03     -2.932696526865e-04
      1.000000000000e+03     -2.318035473975e-03
      2.280000000000e+02     -1.149978603857e-02
      6.471000000000e+01     -4.682672700979e-02
      2.106000000000e+01     -1.284661687505e-01
      7.495000000000e+00     -3.012662724629e-01
      2.797000000000e+00     -2.556307023301e-01
      5.215000000000e-01      1.093793361012e+00
 s           1
      1.596000000000e-01      1.000000000000e+00
 s           1
      4.690000000000e-02      1.000000000000e+00
 p           3
      9.439000000000e+00      5.697925159004e-02
      2.002000000000e+00      3.132072115007e-01
      5.456000000000e-01      7.603767417375e-01
 p           1
      1.517000000000e-01      1.000000000000e+00
 p           1
      4.041000000000e-02      1.000000000000e+00
 d           1
      5.500000000000e-01      1.000000000000e+00
 d           1
      1.510000000000e-01      1.000000000000e+00

7
 s           8
      6.665000000000e+03      6.915839628130e-04
      1.000000000000e+03      5.325796152934e-03
      2.280000000000e+02      2.706072104203e-02
      6.471000000000e+01      1.016568461408e-01
      2.106000000000e+01      2.745748236174e-01
      7.495000000000e+00      4.482943189238e-01
      2.797000000000e+00      2.849026107152e-01
      5.215000000000e-01      1.519485920608e-02
 s           8
      6.665000000000e+03     -2.932696526865e-04
      1.000000000000e+03     -2.318035473975e-03
      2.280000000000e+02     -1.149978603857e-02
      6.471000000000e+01     -4.682672700979e-02
      2.106000000000e+01     -1.284661687505e-01
      7.495000000000e+00     -3.012662724629e-01
      2.797000000000e+00     -2.556307023301e-01
      5.215000000000e-01      1.093793361012e+00
 s           1
      1.596000000000e-01      1.000000000000e+00
 s           1
      4.690000000000e-02      1.000000000000e+00
 p           3
      9.439000000000e+00      5.697925159004e-02
      2.002000000000e+00      3.132072115007e-01
      5.456000000000e-01      7.603767417375e-01
 p           1
      1.517000000000e-01      1.000000000000e+00
 p           1
      4.041000000000e-02      1.000000000000e+00
 d           1
      5.500000000000e-01      1.000000000000e+00
 d           1
      1.510000000000e-01      1.000000000000e+00

8
 s           8
      6.665000000000e+03      6.915839628130e-04
      1.000000000000e+03      5.325796152934e-03
      2.280000000000e+02      2.706072104203e-02
      6.471000000000e+01      1.016568461408e-01
      2.106000000000e+01      2.745748236174e-01
      7.495000000000e+00      4.482943189238e-01
      2.797000000000e+00      2.849026107152e-01
      5.215000000000e-01      1.519485920608e-02
 s           8
      6.665000000000e+03     -2.932696526865e-04
      1.000000000000e+03     -2.318035473975e-03
      2.280000000000e+02     -1.149978603857e-02
      6.471000000000e+01     -4.682672700979e-02
      2.106000000000e+01     -1.284661687505e-01
      7.495000000000e+00     -3.012662724629e-01
      2.797000000000e+00     -2.556307023301e-01
      5.215000000000e-01      1.093793361012e+00
 s           1
      1.596000000000e-01      1.000000000000e+00
 s           1
      4.690000000000e-02      1.000000000000e+00
 p           3
      9.439000000000e+00      5.697925159004e-02
      2.002000000000e+00      3.132072115007e-01
      5.456000000000e-01      7.603767417375e-01
 p           1
      1.517000000000e-01      1.000000000000e+00
 p           1
      4.041000000000e-02      1.000000000000e+00
 d           1
      5.500000000000e-01      1.000000000000e+00
 d           1
      1.510000000000e-01      1.000000000000e+00

9
 s           8
      6.665000000000e+03      6.915839628130e-04
      1.000000000000e+03      5.325796152934e-03
      2.280000000000e+02      2.706072104203e-02
      6.471000000000e+01      1.016568461408e-01
      2.106000000000e+01      2.745748236174e-01
      7.495000000000e+00      4.482943189238e-01
      2.797000000000e+00      2.849026107152e-01
      5.215000000000e-01      1.519485920608e-02
 s           8
      6.665000000000e+03     -2.932696526865e-04
      1.000000000000e+03     -2.318035473975e-03
      2.280000000000e+02     -1.149978603857e-02
      6.471000000000e+01     -4.682672700979e-02
      2.106000000000e+01     -1.284661687505e-01
      7.495000000000e+00     -3.012662724629e-01
      2.797000000000e+00     -2.556307023301e-01
      5.215000000000e-01      1.093793361012e+00
 s           1
      1.596000000000e-01      1.000000000000e+00
 s           1
      4.690000000000e-02      1.000000000000e+00
 p           3
      9.439000000000e+00      5.697925159004e-02
      2.002000000000e+00      3.132072115007e-01
      5.456000000000e-01      7.603767417375e-01
 p           1
      1.517000000000e-01      1.000000000000e+00
 p           1
      4.041000000000e-02      1.000000000000e+00
 d           1
      5.500000000000e-01      1.000000000000e+00
 d           1
      1.510000000000e-01      1.000000000000e+00

10
 s           8
      6.665000000000e+03      6.915839628130e-04
      1.000000000000e+03      5.325796152934e-03
      2.280000000000e+02      2.706072104203e-02
      6.471000000000e+01      1.016568461408e-01
      2.106000000000e+01      2.745748236174e-01
      7.495000000000e+00      4.482943189238e-01
      2.797000000000e+00      2.849026107152e-01
      5.215000000000e-01      1.519485920608e-02
 s           8
      6.665000000000e+03     -2.932696526865e-04
      1.000000000000e+03     -2.318035473975e-03
      2.280000000000e+02     -1.149978603857e-02
      6.471000000000e+01     -4.682672700979e-02
      2.106000000000e+01     -1.284661687505e-01
      7.495000000000e+00     -3.012662724629e-01
      2.797000000000e+00     -2.556307023301e-01
      5.215000000000e-01      1.093793361012e+00
 s           1
      1.596000000000e-01      1.000000000000e+00
 s           1
      4.690000000000e-02      1.000000000000e+00
 p           3
      9.439000000000e+00      5.697925159004e-02
      2.002000000000e+00      3.132072115007e-01
      5.456000000000e-01      7.603767417375e-01
 p           1
      1.517000000000e-01      1.000000000000e+00
 p           1
      4.041000000000e-02      1.000000000000e+00
 d           1
      5.500000000000e-01      1.000000000000e+00
 d           1
      1.510000000000e-01      1.000000000000e+00

11
 s           3
      1.301000000000e+01      3.349872639000e-02
      1.962000000000e+00      2.348008011741e-01
      4.446000000000e-01      8.136829578829e-01
 s           1
      1.220000000000e-01      1.000000000000e+00
 s           1
      2.974000000000e-02      1.000000000000e+00
 p           1
      7.270000000000e-01      1.000000000000e+00
 p           1
      1.410000000000e-01      1.000000000000e+00

12
 s           3
      1.301000000000e+01      3.349872639000e-02
      1.962000000000e+00      2.348008011741e-01
      4.446000000000e-01      8.136829578829e-01
 s           1
      1.220000000000e-01      1.000000000000e+00
 s           1
      2.974000000000e-02      1.000000000000e+00
 p           1
      7.270000000000e-01      1.000000000000e+00
 p           1
      1.410000000000e-01      1.000000000000e+00

13
 s           3
      1.301000000000e+01      3.349872639000e-02
      1.962000000000e+00      2.348008011741e-01
      4.446000000000e-01      8.136829578829e-01
 s           1
      1.220000000000e-01      1.000000000000e+00
 s           1
      2.974000000000e-02      1.000000000000e+00
 p           1
      7.270000000000e-01      1.000000000000e+00
 p           1
      1.410000000000e-01      1.000000000000e+00

14
 s           3
      1.301000000000e+01      3.349872639000e-02
      1.962000000000e+00      2.348008011741e-01
      4.446000000000e-01      8.136829578829e-01
 s           1
      1.220000000000e-01      1.000000000000e+00
 s           1
      2.974000000000e-02      1.000000000000e+00
 p           1
      7.270000000000e-01      1.000000000000e+00
 p           1
      1.410000000000e-01      1.000000000000e+00

15
 s           3
      1.301000000000e+01      3.349872639000e-02
      1.962000000000e+00      2.348008011741e-01
      4.446000000000e-01      8.136829578829e-01
 s           1
      1.220000000000e-01      1.000000000000e+00
 s           1
      2.974000000000e-02      1.000000000000e+00
 p           1
      7.270000000000e-01      1.000000000000e+00
 p           1
      1.410000000000e-01      1.000000000000e+00

16
 s           3
      1.301000000000e+01      3.349872639000e-02
      1.962000000000e+00      2.348008011741e-01
      4.446000000000e-01      8.136829578829e-01
 s           1
      1.220000000000e-01      1.000000000000e+00
 s           1
      2.974000000000e-02      1.000000000000e+00
 p           1
      7.270000000000e-01      1.000000000000e+00
 p           1
      1.410000000000e-01      1.000000000000e+00

17
 s           3
      1.301000000000e+01      3.349872639000e-02
      1.962000000000e+00      2.348008011741e-01
      4.446000000000e-01      8.136829578829e-01
 s           1
      1.220000000000e-01      1.000000000000e+00
 s           1
      2.974000000000e-02      1.000000000000e+00
 p           1
      7.270000000000e-01      1.000000000000e+00
 p           1
      1.410000000000e-01      1.000000000000e+00

18
 s           3
      1.301000000000e+01      3.349872639000e-02
      1.962000000000e+00      2.348008011741e-01
      4.446000000000e-01      8.136829578829e-01
 s           1
      1.220000000000e-01      1.000000000000e+00
 s           1
      2.974000000000e-02      1.000000000000e+00
 p           1
      7.270000000000e-01      1.000000000000e+00
 p           1
      1.410000000000e-01      1.000000000000e+00


[5D]
[7F]
[9G]
[MO]
 Ene=  -15.639483
 Spin=  Alpha
 Occup=    2.000000
   1     0.0000830579670107
   2     0.0001445582521178
   3    -0.0057391971148053
   4    -0.0042302670393887
   5    -0.0000099841012624
   6    -0.0000051720175370
   7     0.0000000547224072
   8     0.0012017909223622
   9    -0.0067985785464146
  10    -0.0000310918717294
  11     0.0028219664851451
  12     0.0031934854089876
  13     0.0010163411391889
  14     0.0000073840953480
  15     0.0000029256906957
  16    -0.0000059676032722
  17     0.0000243116067782
  18    -0.0000055665167566
  19     0.0001860956814615
  20     0.0002509426861744
  21     0.0004376726161554
  22     0.0006737277490584
  23     0.0017091126305747
  24    -0.0000202308528265
  25    -0.0000159965257145
  26    -0.0057335395488339
  27     0.0130362887229574
  28    -0.0000931021611204
  29     0.0000462233940626
  30    -0.0000260022288973
  31     0.0038814094103795
  32    -0.0095287843116813
  33     0.0007461590550362
  34    -0.0052100929656944
  35     0.0026381171643215
  36    -0.0014646555208102
  37    -0.0000038359110806
  38     0.0000352201044324
  39    -0.0000055102068060
  40     0.0000933574028770
  41     0.0000128574768240
  42    -0.0007131738524956
  43    -0.0003675542212456
  44     0.0008446312858297
  45    -0.0026119964612154
  46     0.0021936383598886
  47    -0.0001832474634593
  48    -0.0002797800705770
  49     0.0002535379381982
  50    -0.0265903216341577
  51     0.0003121374500619
  52     0.0001836006203238
  53     0.0001066610708093
  54     0.0129126224186844
  55     0.0033446088289466
  56     0.0039339218100173
  57    -0.0026667683215565
  58     0.0046377630714278
  59    -0.0003359016706614
  60     0.0000704274964285
  61     0.0000289818202493
  62     0.0000350884292665
  63     0.0001457635084679
  64     0.0001804866009008
  65     0.0009579144826120
  66    -0.0005532430283218
  67    -0.0016221216765702
  68     0.0013398221168047
  69    -0.0052207794218899
  70    -1.0030801375820211
  71    -0.0054080527283875
  72     0.0277427594834676
  73     0.0217269264406091
  74     0.0000072713480755
  75    -0.0009132179351184
  76     0.0000094362848437
  77    -0.0000626826852475
  78     0.0051828942786412
  79     0.0000202730018614
  80     0.0000552952040174
  81     0.0027533317502803
  82     0.0000336877258238
  83     0.0001804055643102
  84    -0.0001439523069337
  85    -0.0000038893122401
  86    -0.0000399749804804
  87     0.0000017606056490
  88    -0.0006232877881631
  89     0.0011782109794478
  90     0.0000280174507739
  91     0.0018091537115896
  92     0.0000110546559096
  93     0.0001095251288222
  94     0.0001325704623912
  95    -0.0001808874099163
  96     0.0042066904330621
  97     0.0000254310918881
  98    -0.0001145122027370
  99     0.0000112187727528
 100    -0.0000785103893301
 101     0.0028524692576633
 102     0.0000004784644206
 103    -0.0000028734365964
 104     0.0011144539842102
 105     0.0000191571980025
 106     0.0000444559761943
 107    -0.0000685369938010
 108     0.0000013559037536
 109    -0.0001436779564879
 110    -0.0000043642853072
 111    -0.0006816651324767
 112    -0.0001866374357919
 113     0.0000674002337602
 114    -0.0023235197144923
 115    -0.0000108239842861
 116     0.0000034043518395
 117     0.0000242654495376
 118    -0.0013018411366180
 119     0.0085393404487198
 120    -0.0000286776022047
 121     0.0000425762913311
 122    -0.0000027537762351
 123    -0.0018566446667455
 124    -0.0005251954943691
 125    -0.0005358635691670
 126     0.0020181192400438
 127     0.0011634959191856
 128     0.0005192393940827
 129    -0.0000376527651636
 130     0.0000060438595430
 131    -0.0000132180376547
 132    -0.0000355262491584
 133    -0.0000477461138264
 134     0.0000925402690804
 135    -0.0002591912959320
 136     0.0000487735366807
 137    -0.0008248466984836
 138    -0.0000809178472343
 139     0.0000028111866524
 140     0.0000022982994030
 141    -0.0013002232126044
 142     0.0083824835286141
 143    -0.0000055663326570
 144     0.0000287285891387
 145    -0.0000045135027419
 146     0.0018450731633815
 147    -0.0005124395374549
 148     0.0004584353896667
 149    -0.0019391392129323
 150     0.0011219987103574
 151    -0.0003739171997670
 152    -0.0000353669687369
 153     0.0000080102629579
 154     0.0000171436844173
 155    -0.0000383533318251
 156     0.0000436543465669
 157     0.0000792095742258
 158    -0.0002442333309882
 159     0.0000152754208556
 160    -0.0008334397127139
 161     0.0000516282088688
 162     0.0000841082246627
 163     0.0001506124237877
 164    -0.0055501994035469
 165    -0.0041422876293512
 166     0.0000132878662527
 167    -0.0000075087099384
 168     0.0000059130679545
 169    -0.0010427764380050
 170    -0.0067143247606142
 171    -0.0002903315245866
 172    -0.0028472373837804
 173     0.0030284148180207
 174    -0.0007709639822290
 175     0.0000078215232031
 176     0.0000019601203590
 177     0.0000074136281736
 178     0.0000210244162941
 179     0.0000041803764367
 180     0.0001431476357042
 181     0.0001501340175108
 182    -0.0004565999854995
 183     0.0007226690680727
 184    -0.0016759161755948
 185    -0.0000152564278391
 186    -0.0000061779803675
 187    -0.0058968615234836
 188     0.0129350716796901
 189     0.0000930143819522
 190     0.0000444418559696
 191     0.0000275484144524
 192    -0.0038097726562438
 193    -0.0094991342115866
 194    -0.0007893824471755
 195     0.0050935048250495
 196     0.0026605567713477
 197     0.0012763323091923
 198    -0.0000018524621211
 199     0.0000338598608526
 200     0.0000097861157694
 201     0.0000940404621071
 202    -0.0000109565378497
 203    -0.0006833265206443
 204    -0.0003012176927173
 205    -0.0008284701592746
 206    -0.0025218737340804
 207    -0.0022346894196786
 208    -0.0001862293726562
 209    -0.0002810925987013
 210     0.0001984495140616
 211    -0.0262047024958553
 212    -0.0003123908730656
 213     0.0001769190368217
 214    -0.0001007861577777
 215    -0.0130734442578701
 216     0.0031938836452929
 217    -0.0038167450817719
 218     0.0025837919298498
 219     0.0045188234022004
 220     0.0002115693547036
 221     0.0000674583748065
 222     0.0000339082121341
 223    -0.0000239714408195
 224     0.0001507931007045
 225    -0.0001812315774375
 226     0.0009103485862895
 227    -0.0006968324305960
 228     0.0015816745266689
 229     0.0012334156060063
 230     0.0052451715908489
 231     0.0000028847800966
 232    -0.0011433013702434
 233    -0.0002383828523512
 234    -0.0000018109516050
 235     0.0000068461896497
 236    -0.0000012460079941
 237     0.0002370743854072
 238    -0.0004831591961781
 239     0.0000199985270127
 240    -0.0000106028707138
 241     0.0016177413613118
 242     0.0008041846329976
 243    -0.0000321500725726
 244    -0.0000078737466196
 245    -0.0000100333621290
 246    -0.0006569350613392
 247    -0.0006992949461699
 248    -0.0002126133334591
 249     0.0003182475713564
 250     0.0000214578272540
 251    -0.0020283888243548
 252    -0.0000418199682111
 253    -0.0001635999134527
 254    -0.0000251439112054
 255     0.0011855140711005
 256     0.0004438679087897
 257     0.0002928930577330
 258    -0.0000279517609752
 259    -0.0020616266999890
 260     0.0010397293552310
 261    -0.0000019713254174
 262    -0.0000192490568254
 263     0.0000017193049159
 264     0.0004770813677645
 265    -0.0003900523911798
 266     0.0001255899679704
 267    -0.0000265192457050
 268    -0.0021396086962429
 269     0.0010481519285670
 270     0.0000023669356330
 271    -0.0000189642752066
 272    -0.0000006525374197
 273    -0.0004614001361219
 274    -0.0004212459029744
 275    -0.0001703315719800
 276     0.0000002496434776
 277    -0.0011440911512476
 278    -0.0002360294098950
 279     0.0000014937707391
 280     0.0000072123412380
 281     0.0000017476327095
 282    -0.0002256121447138
 283    -0.0004848927318498
 284    -0.0000537702125324
 285    -0.0000080113094269
 286     0.0015668760347869
 287     0.0007577095504670
 288     0.0000333742335547
 289    -0.0000074580888671
 290     0.0000128471430103
 291     0.0006624211077506
 292    -0.0006597701818654
 293     0.0002292569303319
 294     0.0003185924495637
 295     0.0000167889702551
 296    -0.0019154590958390
 297     0.0000421012995100
 298    -0.0001636005806638
 299     0.0000343061058370
 300    -0.0011697182502690
 301     0.0004401992183583
 302    -0.0002647971368956
 Ene=  -11.291491
 Spin=  Alpha
 Occup=    2.000000
   1     0.0000073817086528
   2     0.0000182542603104
   3    -0.0031559623668751
   4    -0.0076051551159345
   5     0.0000074334077065
   6    -0.0000155425769629
   7     0.0000047099422391
   8     0.0015837289606081
   9     0.0039009504412681
  10     0.0004577723412121
  11    -0.0007432443686040
  12    -0.0026992138995904
  13    -0.0003455014536812
  14    -0.0000156012052215
  15     0.0000175076382733
  16    -0.0000150673163335
  17     0.0000253991940305
  18    -0.0000282371128231
  19     0.0001279232412546
  20    -0.0002162176037427
  21    -0.0001806459178889
  22    -0.0007948783604774
  23    -0.0009822330112404
  24     0.0001351441866185
  25     0.0000881324753212
  26     0.0050043103919876
  27    -0.0014358564324262
  28    -0.0000977132683622
  29     0.0000542197530150
  30    -0.0000330091117682
  31    -0.0033036642102159
  32     0.0029663981712997
  33    -0.0003194977816679
  34     0.0013066440370614
  35    -0.0048652269220209
  36     0.0001017608996985
  37    -0.0000264943011954
  38     0.0000108375655752
  39     0.0000058480727278
  40     0.0000140666600198
  41     0.0000059276830895
  42     0.0000643241029535
  43    -0.0002291557452682
  44    -0.0001975325971589
  45     0.0006698275108250
  46    -0.0008009604696506
  47     0.0077586975409222
  48     0.0007144255932824
  49    -0.0000083284261774
  50     0.0081689962897918
  51    -0.0001458340722689
  52    -0.0000683203445704
  53    -0.0000505035753075
  54    -0.0057250724933538
  55     0.0022393646525250
  56    -0.0018245996468798
  57     0.0050666858466674
  58    -0.0005469702482264
  59     0.0014779149813606
  60     0.0001249598453379
  61    -0.0000717697215714
  62    -0.0000035524195202
  63     0.0000019999821657
  64     0.0000245758243214
  65     0.0002178744756044
  66    -0.0005968350730549
  67     0.0010997878084697
  68    -0.0006854969637617
  69     0.0026372753868013
  70    -0.0002107931941315
  71    -0.0007622129134008
  72     0.0038308018386207
  73    -0.0013591787100321
  74     0.0003640243672254
  75    -0.0001968791423018
  76     0.0001340144357371
  77    -0.0047375892656395
  78     0.0019513902807291
  79    -0.0015920914409007
  80    -0.0074388045043613
  81     0.0078815505186394
  82    -0.0021645472857306
  83    -0.0001223141972376
  84     0.0000923696051970
  85    -0.0000203733424878
  86     0.0000116882836511
  87    -0.0000197252957130
  88    -0.0003144413389210
  89     0.0004034951762272
  90    -0.0007964019387998
  91     0.0005694319174716
  92    -0.0025368507919894
  93     0.0003358307538598
  94     0.0005537520969200
  95     0.0020529263881825
  96    -0.0049198646806418
  97    -0.0000434341681881