 Entering Gaussian System, Link 0=g16
 Initial command:
 /local/gaussian-16.A03/g16/l1.exe "/scratch/3071538/NICS_perpendicular/Gau-29872.inp" -scrdir="/scratch/3071538/NICS_perpendicular/"
 Default CPUs for threads: 0-9,14-23,28-37,42-51
 Default is to use a total of  40 processors:
                               40 via shared-memory
                                1 via Linda
 Entering Link 1 = /local/gaussian-16.A03/g16/l1.exe PID=     29874.
  
 Copyright (c) 1988,1990,1992,1993,1995,1998,2003,2009,2016,
            Gaussian, Inc.  All Rights Reserved.
  
 This is part of the Gaussian(R) 16 program.  It is based on
 the Gaussian(R) 09 system (copyright 2009, Gaussian, Inc.),
 the Gaussian(R) 03 system (copyright 2003, Gaussian, Inc.),
 the Gaussian(R) 98 system (copyright 1998, Gaussian, Inc.),
 the Gaussian(R) 94 system (copyright 1995, Gaussian, Inc.),
 the Gaussian 92(TM) system (copyright 1992, Gaussian, Inc.),
 the Gaussian 90(TM) system (copyright 1990, Gaussian, Inc.),
 the Gaussian 88(TM) system (copyright 1988, Gaussian, Inc.),
 the Gaussian 86(TM) system (copyright 1986, Carnegie Mellon
 University), and the Gaussian 82(TM) system (copyright 1983,
 Carnegie Mellon University). Gaussian is a federally registered
 trademark of Gaussian, Inc.
  
 This software contains proprietary and confidential information,
 including trade secrets, belonging to Gaussian, Inc.
  
 This software is provided under written license and may be
 used, copied, transmitted, or stored only in accord with that
 written license.
  
 The following legend is applicable only to US Government
 contracts under FAR:
  
                    RESTRICTED RIGHTS LEGEND
  
 Use, reproduction and disclosure by the US Government is
 subject to restrictions as set forth in subparagraphs (a)
 and (c) of the Commercial Computer Software - Restricted
 Rights clause in FAR 52.227-19.
  
 Gaussian, Inc.
 340 Quinnipiac St., Bldg. 40, Wallingford CT 06492
  
  
 ---------------------------------------------------------------
 Warning -- This program may not be used in any manner that
 competes with the business of Gaussian, Inc. or will provide
 assistance to any competitor of Gaussian, Inc.  The licensee
 of this program is prohibited from giving any competitor of
 Gaussian, Inc. access to this program.  By using this program,
 the user acknowledges that Gaussian, Inc. is engaged in the
 business of creating and licensing software in the field of
 computational chemistry and represents and warrants to the
 licensee that it is not a competitor of Gaussian, Inc. and that
 it will not use this program in any manner prohibited above.
 ---------------------------------------------------------------
  

 Cite this work as:
 Gaussian 16, Revision A.03,
 M. J. Frisch, G. W. Trucks, H. B. Schlegel, G. E. Scuseria, 
 M. A. Robb, J. R. Cheeseman, G. Scalmani, V. Barone, 
 G. A. Petersson, H. Nakatsuji, X. Li, M. Caricato, A. V. Marenich, 
 J. Bloino, B. G. Janesko, R. Gomperts, B. Mennucci, H. P. Hratchian, 
 J. V. Ortiz, A. F. Izmaylov, J. L. Sonnenberg, D. Williams-Young, 
 F. Ding, F. Lipparini, F. Egidi, J. Goings, B. Peng, A. Petrone, 
 T. Henderson, D. Ranasinghe, V. G. Zakrzewski, J. Gao, N. Rega, 
 G. Zheng, W. Liang, M. Hada, M. Ehara, K. Toyota, R. Fukuda, 
 J. Hasegawa, M. Ishida, T. Nakajima, Y. Honda, O. Kitao, H. Nakai, 
 T. Vreven, K. Throssell, J. A. Montgomery, Jr., J. E. Peralta, 
 F. Ogliaro, M. J. Bearpark, J. J. Heyd, E. N. Brothers, K. N. Kudin, 
 V. N. Staroverov, T. A. Keith, R. Kobayashi, J. Normand, 
 K. Raghavachari, A. P. Rendell, J. C. Burant, S. S. Iyengar, 
 J. Tomasi, M. Cossi, J. M. Millam, M. Klene, C. Adamo, R. Cammi, 
 J. W. Ochterski, R. L. Martin, K. Morokuma, O. Farkas, 
 J. B. Foresman, and D. J. Fox, Gaussian, Inc., Wallingford CT, 2016.
 
 ******************************************
 Gaussian 16:  ES64L-G16RevA.03 25-Dec-2016
                20-Nov-2025 
 ******************************************
 %nprocshared=40
 Will use up to   40 processors via shared memory.
 %mem=90gb
 %chk=normal_opt_NICS.chk
 -----------------------------------------------
 #p nmr=giao wb97x/aug-cc-pvdz nosymm guess=save
 -----------------------------------------------
 1/38=1,172=1/1;
 2/12=2,15=1,17=6,18=5,40=1/2;
 3/5=16,7=10,11=2,25=1,30=1,74=-57/1,2,3,8;
 4//1;
 5/5=2,38=5/2;
 8/6=1,10=90,11=11/1;
 10/13=100,31=1,45=16/2;
 6/7=2,8=2,9=2,10=2,28=1/1;
 99/9=1/99;
 Leave Link    1 at Thu Nov 20 19:37:39 2025, MaxMem= 12079595520 cpu:               3.3 elap:               0.1
 (Enter /local/gaussian-16.A03/g16/l101.exe)
 --------------------------
 File Created by py.Aroma 5
 --------------------------
 Symbolic Z-matrix:
 Charge =  0 Multiplicity = 1
 C                     2.49548  -0.69147   0. 
 C                     2.39478   0.73831   0. 
 C                     1.18848   1.36202   0. 
 N                    -0.00006   0.6564    0. 
 B                     0.00006  -0.80983   0. 
 C                     1.37404  -1.47118   0. 
 C                    -1.37382  -1.47141   0. 
 C                    -2.49538  -0.69188   0. 
 C                    -2.39492   0.73792   0. 
 C                    -1.18872   1.36182   0. 
 H                     3.49524  -1.13214   0. 
 H                     3.29427   1.35154   0. 
 H                     1.10347   2.4486    0. 
 H                     1.49589  -2.55655   0. 
 H                    -1.49549  -2.5568    0. 
 H                    -3.49507  -1.13272   0. 
 H                    -3.29451   1.351     0. 
 H                    -1.10389   2.44842   0. 
 Bq                    1.24213  -0.03596   1. 
 Bq                    1.24213  -0.03596  -1. 
 Bq                   -1.24214  -0.03616   1. 
 Bq                   -1.24214  -0.03616  -1. 
 Bq                   -0.00001  -0.00322   0. 
 Bq                    1.24213  -0.03596   0. 
 Bq                   -1.24214  -0.03616   0. 
 Bq                   0.        -0.07671   1. 
 Bq                   0.        -0.07671  -1. 
 
 ITRead=  0  0  0  0  0  0  0  0  0  0  0  0  0  0  0  0  0  0  0  0
 ITRead=  0  0  0  0  0  0  0
 MicOpt= -1 -1 -1 -1 -1 -1 -1 -1 -1 -1 -1 -1 -1 -1 -1 -1 -1 -1 -1 -1
 MicOpt= -1 -1 -1 -1 -1 -1 -1
 NAtoms=     27 NQM=       27 NQMF=       0 NMMI=      0 NMMIF=      0
                NMic=       0 NMicF=      0.
                    Isotopes and Nuclear Properties:
 (Nuclear quadrupole moments (NQMom) in fm**2, nuclear magnetic moments (NMagM)
  in nuclear magnetons)

  Atom         1           2           3           4           5           6           7           8           9          10
 IAtWgt=          12          12          12          14          11          12          12          12          12          12
 AtmWgt=  12.0000000  12.0000000  12.0000000  14.0030740  11.0093053  12.0000000  12.0000000  12.0000000  12.0000000  12.0000000
 NucSpn=           0           0           0           2           3           0           0           0           0           0
 AtZEff=  -0.0000000  -0.0000000  -0.0000000  -0.0000000  -0.0000000  -0.0000000  -0.0000000  -0.0000000  -0.0000000  -0.0000000
 NQMom=    0.0000000   0.0000000   0.0000000   2.0440000   4.0590000   0.0000000   0.0000000   0.0000000   0.0000000   0.0000000
 NMagM=    0.0000000   0.0000000   0.0000000   0.4037610   2.6886370   0.0000000   0.0000000   0.0000000   0.0000000   0.0000000
 AtZNuc=   6.0000000   6.0000000   6.0000000   7.0000000   5.0000000   6.0000000   6.0000000   6.0000000   6.0000000   6.0000000

  Atom        11          12          13          14          15          16          17          18          19          20
 IAtWgt=           1           1           1           1           1           1           1           1           0           0
 AtmWgt=   1.0078250   1.0078250   1.0078250   1.0078250   1.0078250   1.0078250   1.0078250   1.0078250   0.0000000   0.0000000
 NucSpn=           1           1           1           1           1           1           1           1           0           0
 AtZEff=  -0.0000000  -0.0000000  -0.0000000  -0.0000000  -0.0000000  -0.0000000  -0.0000000  -0.0000000  -0.0000000  -0.0000000
 NQMom=    0.0000000   0.0000000   0.0000000   0.0000000   0.0000000   0.0000000   0.0000000   0.0000000   0.0000000   0.0000000
 NMagM=    2.7928460   2.7928460   2.7928460   2.7928460   2.7928460   2.7928460   2.7928460   2.7928460   0.0000000   0.0000000
 AtZNuc=   1.0000000   1.0000000   1.0000000   1.0000000   1.0000000   1.0000000   1.0000000   1.0000000   0.0000000   0.0000000

  Atom        21          22          23          24          25          26          27
 IAtWgt=           0           0           0           0           0           0           0
 AtmWgt=   0.0000000   0.0000000   0.0000000   0.0000000   0.0000000   0.0000000   0.0000000
 NucSpn=           0           0           0           0           0           0           0
 AtZEff=  -0.0000000  -0.0000000  -0.0000000  -0.0000000  -0.0000000  -0.0000000  -0.0000000
 NQMom=    0.0000000   0.0000000   0.0000000   0.0000000   0.0000000   0.0000000   0.0000000
 NMagM=    0.0000000   0.0000000   0.0000000   0.0000000   0.0000000   0.0000000   0.0000000
 AtZNuc=   0.0000000   0.0000000   0.0000000   0.0000000   0.0000000   0.0000000   0.0000000
 Leave Link  101 at Thu Nov 20 19:37:40 2025, MaxMem= 12079595520 cpu:              10.1 elap:               0.3
 (Enter /local/gaussian-16.A03/g16/l202.exe)
                          Input orientation:                          
 ---------------------------------------------------------------------
 Center     Atomic      Atomic             Coordinates (Angstroms)
 Number     Number       Type             X           Y           Z
 ---------------------------------------------------------------------
      1          6           0        2.495478   -0.691469    0.000000
      2          6           0        2.394779    0.738312    0.000000
      3          6           0        1.188482    1.362020    0.000000
      4          7           0       -0.000063    0.656404    0.000000
      5          5           0        0.000059   -0.809827    0.000000
      6          6           0        1.374044   -1.471178    0.000000
      7          6           0       -1.373817   -1.471406    0.000000
      8          6           0       -2.495380   -0.691882    0.000000
      9          6           0       -2.394918    0.737916    0.000000
     10          6           0       -1.188723    1.361823    0.000000
     11          1           0        3.495244   -1.132142    0.000000
     12          1           0        3.294267    1.351541    0.000000
     13          1           0        1.103465    2.448604    0.000000
     14          1           0        1.495893   -2.556550    0.000000
     15          1           0       -1.495487   -2.556798    0.000000
     16          1           0       -3.495074   -1.132719    0.000000
     17          1           0       -3.294506    1.350998    0.000000
     18          1           0       -1.103887    2.448421    0.000000
     19          0           0        1.242130   -0.035956    1.000000
     20          0           0        1.242130   -0.035956   -1.000000
     21          0           0       -1.242140   -0.036162    1.000000
     22          0           0       -1.242140   -0.036162   -1.000000
     23          0           0       -0.000008   -0.003218    0.000000
     24          0           0        1.242130   -0.035956    0.000000
     25          0           0       -1.242140   -0.036162    0.000000
     26          0           0       -0.000002   -0.076712    1.000000
     27          0           0       -0.000002   -0.076712   -1.000000
 ---------------------------------------------------------------------
                    Distance matrix (angstroms):
                    1          2          3          4          5
     1  C    0.000000
     2  C    1.433323   0.000000
     3  C    2.434144   1.358000   0.000000
     4  N    2.836280   2.396242   1.382220   0.000000
     5  B    2.498224   2.851564   2.475736   1.466231   0.000000
     6  C    1.365855   2.433875   2.839268   2.532741   1.524867
     7  C    3.947119   4.368658   3.820167   2.532741   1.524868
     8  C    4.990858   5.095008   4.217743   2.836280   2.498225
     9  C    5.095009   4.789697   3.637343   2.396242   2.851565
    10  C    4.217742   3.637341   2.377205   1.382219   2.475736
    11  H    1.092577   2.170166   3.397351   3.926330   3.510015
    12  H    2.193617   1.088636   2.105811   3.366872   3.939964
    13  H    3.434787   2.143033   1.089905   2.104698   3.440186
    14  H    2.116057   3.415276   3.930610   3.544144   2.299687
    15  H    4.405366   5.098227   4.749824   3.544144   2.299688
    16  H    6.006781   6.179897   5.306545   3.926329   3.510016
    17  H    6.139673   5.722180   4.483002   3.366870   3.939965
    18  H    4.776436   3.894244   2.536774   2.104698   3.440186
    19  Bq   1.732218   1.711166   1.719655   1.738507   1.772461
    20  Bq   1.732218   1.711166   1.719655   1.738507   1.772461
    21  Bq   3.924183   3.850583   2.977052   1.738506   1.772460
    22  Bq   3.924183   3.850583   2.977052   1.738506   1.772460
    23  Bq   2.588656   2.506965   1.810078   0.659622   0.806609
    24  Bq   1.414418   1.388557   1.399005   1.422113   1.463426
    25  Bq   3.794630   3.718466   2.804075   1.422112   1.463426
    26  Bq   2.757779   2.720154   2.117178   1.239943   1.239943
    27  Bq   2.757779   2.720154   2.117178   1.239943   1.239943
                    6          7          8          9         10
     6  C    0.000000
     7  C    2.747861   0.000000
     8  C    3.947118   1.365855   0.000000
     9  C    4.368658   2.433876   1.433323   0.000000
    10  C    3.820166   2.839269   2.434144   1.358001   0.000000
    11  H    2.148124   4.880866   6.006780   6.179897   5.306544
    12  H    3.413942   5.455276   6.139673   5.722182   4.483002
    13  H    3.929110   4.637176   4.776436   3.894244   2.536773
    14  H    1.092190   3.068024   4.405366   5.098227   4.749822
    15  H    3.068025   1.092190   2.116057   3.415277   3.930610
    16  H    4.880867   2.148125   1.092577   2.170166   3.397351
    17  H    5.455276   3.413944   2.193618   1.088636   2.105811
    18  H    4.637176   3.929110   3.434786   2.143033   1.089905
    19  Bq   1.754213   3.147014   3.924184   3.850584   2.977051
    20  Bq   1.754213   3.147014   3.924184   3.850584   2.977051
    21  Bq   3.147013   1.754213   1.732218   1.711167   1.719656
    22  Bq   3.147013   1.754213   1.732218   1.711167   1.719656
    23  Bq   2.010703   2.010703   2.588656   2.506965   1.810077
    24  Bq   1.441271   2.983906   3.794630   3.718467   2.804074
    25  Bq   2.983905   1.441272   1.414418   1.388558   1.399005
    26  Bq   2.198303   2.198304   2.757779   2.720155   2.117177
    27  Bq   2.198303   2.198304   2.757779   2.720155   2.117177
                   11         12         13         14         15
    11  H    0.000000
    12  H    2.491801   0.000000
    13  H    4.306083   2.450135   0.000000
    14  H    2.454861   4.302014   5.020515   0.000000
    15  H    5.190091   6.181978   5.639911   2.991380   0.000000
    16  H    6.990318   7.229571   5.828588   5.190091   2.454862
    17  H    7.229570   6.588773   4.532868   6.181978   4.302016
    18  H    5.828588   4.532869   2.207352   5.639911   5.020515
    19  Bq   2.697804   2.671407   2.681840   2.723562   3.853465
    20  Bq   2.697804   2.671407   2.681840   2.723562   3.853465
    21  Bq   4.964270   4.848165   3.560327   3.853463   2.723562
    22  Bq   4.964270   4.848165   3.560327   3.853463   2.723562
    23  Bq   3.673045   3.561969   2.688696   2.959261   2.959261
    24  Bq   2.505623   2.477179   2.488426   2.533336   3.721450
    25  Bq   4.862508   4.743913   3.417005   3.721449   2.533336
    26  Bq   3.785588   3.727213   2.931699   3.063870   3.063870
    27  Bq   3.785588   3.727213   2.931699   3.063870   3.063870
                   16         17         18         19         20
    16  H    0.000000
    17  H    2.491802   0.000000
    18  H    4.306082   2.450132   0.000000
    19  Bq   4.964271   4.848165   3.560327   0.000000
    20  Bq   4.964271   4.848165   3.560327   2.000000   0.000000
    21  Bq   2.697804   2.671408   2.681840   2.484270   3.189294
    22  Bq   2.697804   2.671408   2.681840   3.189294   2.484270
    23  Bq   3.673045   3.561968   2.688695   1.594985   1.594985
    24  Bq   4.862509   4.743913   3.417005   1.000000   1.000000
    25  Bq   2.505623   2.477180   2.488427   2.677984   2.677984
    26  Bq   3.785588   3.727212   2.931699   1.242800   2.354687
    27  Bq   3.785588   3.727212   2.931699   2.354687   1.242800
                   21         22         23         24         25
    21  Bq   0.000000
    22  Bq   2.000000   0.000000
    23  Bq   1.594985   1.594985   0.000000
    24  Bq   2.677984   2.677984   1.242569   0.000000
    25  Bq   1.000000   1.000000   1.242569   2.484270   0.000000
    26  Bq   1.242800   2.354687   1.002697   1.595165   1.595165
    27  Bq   2.354687   1.242800   1.002697   1.595165   1.595165
                   26         27
    26  Bq   0.000000
    27  Bq   2.000000   0.000000
 Symmetry turned off by external request.
 Symmetry turned off:
 Cannot cope with ghost atoms or with translation vectors.
 Stoichiometry    C8H8BN
 Framework group  C1[X(C8H8BN)]
 NumDoF:  NAt=    18 NAtoms=    27
 Deg. of freedom     0
 Full point group                 C1      NOp   1
 Rotational constants (GHZ):           3.0481822           1.2039313           0.8630536
 Leave Link  202 at Thu Nov 20 19:37:40 2025, MaxMem= 12079595520 cpu:               6.1 elap:               0.3
 (Enter /local/gaussian-16.A03/g16/l301.exe)
 Standard basis: Aug-CC-pVDZ (5D, 7F)
 Warning:  center  19 has no basis functions!
 Warning:  center  20 has no basis functions!
 Warning:  center  21 has no basis functions!
 Warning:  center  22 has no basis functions!
 Warning:  center  23 has no basis functions!
 Warning:  center  24 has no basis functions!
 Warning:  center  25 has no basis functions!
 Warning:  center  26 has no basis functions!
 Warning:  center  27 has no basis functions!
 Ernie: Thresh=  0.10000D-02 Tol=  0.10000D-05 Strict=F.
 Ernie:  20 primitive shells out of 306 were deleted.
   302 basis functions,   518 primitive gaussians,   322 cartesian basis functions
    34 alpha electrons       34 beta electrons
       nuclear repulsion energy       453.4090205962 Hartrees.
 IExCor= 4538 DFT=T Ex+Corr=wB97X ExCW=0 ScaHFX=  1.000000
 ScaDFX=  1.000000  1.000000  1.000000  1.000000 ScalE2=  1.000000  1.000000
 IRadAn=      5 IRanWt=     -1 IRanGd=            0 ICorTp=0 IEmpDi=  4
 HFx  wShort=  0.000000 wLong=  0.300000 cFull=  0.157706 cShort=  0.000000 cLong=  0.842294
 DFx  wShort=  0.000000 wLong=  0.300000 cFull=  0.000000 cShort=  0.000000 cLong=  1.000000
 NAtoms=   27 NActive=   27 NUniq=   27 SFac= 1.00D+00 NAtFMM=   60 NAOKFM=F Big=F
 Integral buffers will be    131072 words long.
 Raffenetti 2 integral format.
 Two-electron integral symmetry is turned off.
 Leave Link  301 at Thu Nov 20 19:37:40 2025, MaxMem= 12079595520 cpu:               5.4 elap:               0.2
 (Enter /local/gaussian-16.A03/g16/l302.exe)
 NPDir=0 NMtPBC=     1 NCelOv=     1 NCel=       1 NClECP=     1 NCelD=      1
         NCelK=      1 NCelE2=     1 NClLst=     1 CellRange=     0.0.
 One-electron integrals computed using PRISM.
 NBasis=   302 RedAO= T EigKep=  2.05D-06  NBF=   302
 NBsUse=   302 1.00D-06 EigRej= -1.00D+00 NBFU=   302
 Precomputing XC quadrature grid using
 IXCGrd= 4 IRadAn=           5 IRanWt=          -1 IRanGd=           0 AccXCQ= 0.00D+00.
 Generated NRdTot=       0 NPtTot=           0 NUsed=           0 NTot=          32
 NSgBfM=   322   322   322   322   322 MxSgAt=    27 MxSgA2=    18.
 Leave Link  302 at Thu Nov 20 19:37:41 2025, MaxMem= 12079595520 cpu:              19.7 elap:               0.6
 (Enter /local/gaussian-16.A03/g16/l303.exe)
 DipDrv:  MaxL=1.
 Leave Link  303 at Thu Nov 20 19:37:41 2025, MaxMem= 12079595520 cpu:               3.6 elap:               0.1
 (Enter /local/gaussian-16.A03/g16/l308.exe)
 Leave Link  308 at Thu Nov 20 19:37:41 2025, MaxMem= 12079595520 cpu:               8.2 elap:               0.2
 (Enter /local/gaussian-16.A03/g16/l401.exe)
 ExpMin= 2.38D-02 ExpMax= 9.05D+03 ExpMxC= 3.09D+02 IAcc=3 IRadAn=         5 AccDes= 0.00D+00
 Harris functional with IExCor= 4538 and IRadAn=       5 diagonalized for initial guess.
 HarFok:  IExCor= 4538 AccDes= 0.00D+00 IRadAn=         5 IDoV= 1 UseB2=F ITyADJ=14
 ICtDFT=  3500011 ScaDFX=  1.000000  1.000000  1.000000  1.000000
 FoFCou: FMM=F IPFlag=           0 FMFlag=      100000 FMFlg1=           0
         NFxFlg=           0 DoJE=T BraDBF=F KetDBF=T FulRan=T
         wScrn=  0.000000 ICntrl=       500 IOpCl=  0 I1Cent=   200000004 NGrid=           0
         NMat0=    1 NMatS0=      1 NMatT0=    0 NMatD0=    1 NMtDS0=    0 NMtDT0=    0
 Symmetry not used in FoFCou.
 Harris En= -371.770257799479    
 JPrj=0 DoOrth=F DoCkMO=F.
 Leave Link  401 at Thu Nov 20 19:37:42 2025, MaxMem= 12079595520 cpu:              35.0 elap:               0.9
 (Enter /local/gaussian-16.A03/g16/l502.exe)
 Two-electron integral symmetry not used.
 Closed shell SCF:
 Using DIIS extrapolation, IDIIS=  1040.
 NGot= 12079595520 LenX= 12079372329 LenY= 12079268204
 Requested convergence on RMS density matrix=1.00D-08 within 128 cycles.
 Requested convergence on MAX density matrix=1.00D-06.
 Requested convergence on             energy=1.00D-06.
 No special actions if energy rises.
 Fock matrices will be formed incrementally for  20 cycles.

 Cycle   1  Pass 1  IDiag  1:
 FoFJK:  IHMeth= 1 ICntrl=       0 DoSepK=T KAlg= 0 I1Cent=           0 FoldK=F
 IRaf=         1 NMat=       1 IRICut=       1 DoRegI=T DoRafI=F ISym2E= 0 IDoP0=0 IntGTp=1.
 FoFCou: FMM=F IPFlag=           0 FMFlag=      100000 FMFlg1=           0
         NFxFlg=           0 DoJE=T BraDBF=F KetDBF=F FulRan=T
         wScrn=  0.000000 ICntrl=       500 IOpCl=  0 I1Cent=           0 NGrid=           0
         NMat0=    1 NMatS0=      1 NMatT0=    0 NMatD0=    1 NMtDS0=    0 NMtDT0=    0
 Symmetry not used in FoFCou.
 E= -389.122444582973    
 DIIS: error= 1.97D-02 at cycle   1 NSaved=   1.
 NSaved= 1 IEnMin= 1 EnMin= -389.122444582973     IErMin= 1 ErrMin= 1.97D-02
 ErrMax= 1.97D-02  0.00D+00 EMaxC= 1.00D-01 BMatC= 1.47D-01 BMatP= 1.47D-01
 IDIUse=3 WtCom= 8.03D-01 WtEn= 1.97D-01
 Coeff-Com:  0.100D+01
 Coeff-En:   0.100D+01
 Coeff:      0.100D+01
 Gap=     0.335 Goal=   None    Shift=    0.000
 GapD=    0.335 DampG=1.000 DampE=0.500 DampFc=0.5000 IDamp=-1.
 Damping current iteration by 5.00D-01
 RMSDP=2.63D-02 MaxDP=1.24D+00              OVMax= 2.08D-01

 Cycle   2  Pass 1  IDiag  1:
 RMSU=  4.46D-03    CP:  8.90D-01
 E= -389.175092225980     Delta-E=       -0.052647643007 Rises=F Damp=T
 DIIS: error= 8.18D-03 at cycle   2 NSaved=   2.
 NSaved= 2 IEnMin= 2 EnMin= -389.175092225980     IErMin= 2 ErrMin= 8.18D-03
 ErrMax= 8.18D-03  0.00D+00 EMaxC= 1.00D-01 BMatC= 2.07D-02 BMatP= 1.47D-01
 IDIUse=3 WtCom= 9.18D-01 WtEn= 8.18D-02
 Coeff-Com: -0.481D-01 0.105D+01
 Coeff-En:   0.126D-01 0.987D+00
 Coeff:     -0.431D-01 0.104D+01
 Gap=     0.359 Goal=   None    Shift=    0.000
 RMSDP=1.23D-02 MaxDP=5.33D-01 DE=-5.26D-02 OVMax= 1.20D-01

 Cycle   3  Pass 1  IDiag  1:
 RMSU=  3.61D-03    CP:  7.86D-01  1.52D+00
 E= -389.236264648940     Delta-E=       -0.061172422959 Rises=F Damp=F
 DIIS: error= 4.43D-03 at cycle   3 NSaved=   3.
 NSaved= 3 IEnMin= 3 EnMin= -389.236264648940     IErMin= 3 ErrMin= 4.43D-03
 ErrMax= 4.43D-03  0.00D+00 EMaxC= 1.00D-01 BMatC= 3.36D-03 BMatP= 2.07D-02
 IDIUse=3 WtCom= 9.56D-01 WtEn= 4.43D-02
 Coeff-Com: -0.128D+00 0.260D+00 0.868D+00
 Coeff-En:   0.000D+00 0.000D+00 0.100D+01
 Coeff:     -0.122D+00 0.248D+00 0.874D+00
 Gap=     0.344 Goal=   None    Shift=    0.000
 RMSDP=1.32D-03 MaxDP=5.33D-02 DE=-6.12D-02 OVMax= 3.21D-02

 Cycle   4  Pass 1  IDiag  1:
 RMSU=  6.78D-04    CP:  7.76D-01  1.57D+00  9.64D-01
 E= -389.239857395527     Delta-E=       -0.003592746588 Rises=F Damp=F
 DIIS: error= 1.57D-03 at cycle   4 NSaved=   4.
 NSaved= 4 IEnMin= 4 EnMin= -389.239857395527     IErMin= 4 ErrMin= 1.57D-03
 ErrMax= 1.57D-03  0.00D+00 EMaxC= 1.00D-01 BMatC= 4.31D-04 BMatP= 3.36D-03
 IDIUse=3 WtCom= 9.84D-01 WtEn= 1.57D-02
 Coeff-Com: -0.407D-01 0.585D-01 0.370D+00 0.613D+00
 Coeff-En:   0.000D+00 0.000D+00 0.000D+00 0.100D+01
 Coeff:     -0.401D-01 0.575D-01 0.364D+00 0.619D+00
 Gap=     0.344 Goal=   None    Shift=    0.000
 RMSDP=4.85D-04 MaxDP=1.11D-02 DE=-3.59D-03 OVMax= 6.83D-03

 Cycle   5  Pass 1  IDiag  1:
 RMSU=  3.50D-04    CP:  7.74D-01  1.57D+00  9.57D-01  7.34D-01
 E= -389.240334015101     Delta-E=       -0.000476619574 Rises=F Damp=F
 DIIS: error= 3.63D-04 at cycle   5 NSaved=   5.
 NSaved= 5 IEnMin= 5 EnMin= -389.240334015101     IErMin= 5 ErrMin= 3.63D-04
 ErrMax= 3.63D-04  0.00D+00 EMaxC= 1.00D-01 BMatC= 2.71D-05 BMatP= 4.31D-04
 IDIUse=3 WtCom= 9.96D-01 WtEn= 3.63D-03
 Coeff-Com:  0.760D-02-0.203D-01-0.147D-02 0.109D+00 0.905D+00
 Coeff-En:   0.000D+00 0.000D+00 0.000D+00 0.000D+00 0.100D+01
 Coeff:      0.758D-02-0.203D-01-0.147D-02 0.109D+00 0.905D+00
 Gap=     0.345 Goal=   None    Shift=    0.000
 RMSDP=1.44D-04 MaxDP=3.14D-03 DE=-4.77D-04 OVMax= 4.32D-03

 Cycle   6  Pass 1  IDiag  1:
 RMSU=  1.04D-04    CP:  7.73D-01  1.57D+00  9.62D-01  7.50D-01  1.22D+00
 E= -389.240401102641     Delta-E=       -0.000067087540 Rises=F Damp=F
 DIIS: error= 3.14D-04 at cycle   6 NSaved=   6.
 NSaved= 6 IEnMin= 6 EnMin= -389.240401102641     IErMin= 6 ErrMin= 3.14D-04
 ErrMax= 3.14D-04  0.00D+00 EMaxC= 1.00D-01 BMatC= 9.06D-06 BMatP= 2.71D-05
 IDIUse=3 WtCom= 9.97D-01 WtEn= 3.14D-03
 Coeff-Com:  0.148D-01-0.266D-01-0.882D-01-0.111D+00 0.375D+00 0.836D+00
 Coeff-En:   0.000D+00 0.000D+00 0.000D+00 0.000D+00 0.000D+00 0.100D+01
 Coeff:      0.148D-01-0.265D-01-0.879D-01-0.110D+00 0.374D+00 0.836D+00
 Gap=     0.345 Goal=   None    Shift=    0.000
 RMSDP=8.87D-05 MaxDP=3.36D-03 DE=-6.71D-05 OVMax= 3.86D-03

 Cycle   7  Pass 1  IDiag  1:
 RMSU=  3.90D-05    CP:  7.74D-01  1.57D+00  9.62D-01  7.75D-01  1.39D+00
                    CP:  9.58D-01
 E= -389.240424428894     Delta-E=       -0.000023326252 Rises=F Damp=F
 DIIS: error= 7.88D-05 at cycle   7 NSaved=   7.
 NSaved= 7 IEnMin= 7 EnMin= -389.240424428894     IErMin= 7 ErrMin= 7.88D-05
 ErrMax= 7.88D-05  0.00D+00 EMaxC= 1.00D-01 BMatC= 4.98D-07 BMatP= 9.06D-06
 IDIUse=1 WtCom= 1.00D+00 WtEn= 0.00D+00
 Coeff-Com: -0.222D-02 0.473D-02 0.138D-01 0.460D-02-0.154D+00-0.135D+00
 Coeff-Com:  0.127D+01
 Coeff:     -0.222D-02 0.473D-02 0.138D-01 0.460D-02-0.154D+00-0.135D+00
 Coeff:      0.127D+01
 Gap=     0.346 Goal=   None    Shift=    0.000
 RMSDP=3.40D-05 MaxDP=1.82D-03 DE=-2.33D-05 OVMax= 1.69D-03

 Cycle   8  Pass 1  IDiag  1:
 RMSU=  1.44D-05    CP:  7.74D-01  1.57D+00  9.62D-01  7.74D-01  1.42D+00
                    CP:  1.05D+00  1.13D+00
 E= -389.240427685137     Delta-E=       -0.000003256244 Rises=F Damp=F
 DIIS: error= 2.29D-05 at cycle   8 NSaved=   8.
 NSaved= 8 IEnMin= 8 EnMin= -389.240427685137     IErMin= 8 ErrMin= 2.29D-05
 ErrMax= 2.29D-05  0.00D+00 EMaxC= 1.00D-01 BMatC= 4.75D-08 BMatP= 4.98D-07
 IDIUse=1 WtCom= 1.00D+00 WtEn= 0.00D+00
 Coeff-Com: -0.193D-02 0.356D-02 0.110D-01 0.137D-01-0.476D-01-0.122D+00
 Coeff-Com:  0.700D-01 0.107D+01
 Coeff:     -0.193D-02 0.356D-02 0.110D-01 0.137D-01-0.476D-01-0.122D+00
 Coeff:      0.700D-01 0.107D+01
 Gap=     0.346 Goal=   None    Shift=    0.000
 RMSDP=7.20D-06 MaxDP=2.14D-04 DE=-3.26D-06 OVMax= 5.16D-04

 Cycle   9  Pass 1  IDiag  1:
 RMSU=  4.25D-06    CP:  7.74D-01  1.57D+00  9.62D-01  7.73D-01  1.42D+00
                    CP:  1.04D+00  1.20D+00  1.29D+00
 E= -389.240427949644     Delta-E=       -0.000000264507 Rises=F Damp=F
 DIIS: error= 7.16D-06 at cycle   9 NSaved=   9.
 NSaved= 9 IEnMin= 9 EnMin= -389.240427949644     IErMin= 9 ErrMin= 7.16D-06
 ErrMax= 7.16D-06  0.00D+00 EMaxC= 1.00D-01 BMatC= 1.21D-08 BMatP= 4.75D-08
 IDIUse=1 WtCom= 1.00D+00 WtEn= 0.00D+00
 Coeff-Com: -0.653D-03 0.117D-02 0.325D-02 0.520D-02-0.778D-02-0.461D-01
 Coeff-Com: -0.566D-01 0.456D+00 0.645D+00
 Coeff:     -0.653D-03 0.117D-02 0.325D-02 0.520D-02-0.778D-02-0.461D-01
 Coeff:     -0.566D-01 0.456D+00 0.645D+00
 Gap=     0.346 Goal=   None    Shift=    0.000
 RMSDP=1.86D-06 MaxDP=9.77D-05 DE=-2.65D-07 OVMax= 8.01D-05

 Cycle  10  Pass 1  IDiag  1:
 RMSU=  1.20D-06    CP:  7.74D-01  1.57D+00  9.62D-01  7.74D-01  1.42D+00
                    CP:  1.04D+00  1.19D+00  1.34D+00  9.74D-01
 E= -389.240427968419     Delta-E=       -0.000000018775 Rises=F Damp=F
 DIIS: error= 3.29D-06 at cycle  10 NSaved=  10.
 NSaved=10 IEnMin=10 EnMin= -389.240427968419     IErMin=10 ErrMin= 3.29D-06
 ErrMax= 3.29D-06  0.00D+00 EMaxC= 1.00D-01 BMatC= 1.05D-09 BMatP= 1.21D-08
 IDIUse=1 WtCom= 1.00D+00 WtEn= 0.00D+00
 Coeff-Com:  0.281D-03-0.526D-03-0.188D-02-0.208D-02 0.101D-01 0.162D-01
 Coeff-Com: -0.106D-01-0.179D+00-0.449D-01 0.121D+01
 Coeff:      0.281D-03-0.526D-03-0.188D-02-0.208D-02 0.101D-01 0.162D-01
 Coeff:     -0.106D-01-0.179D+00-0.449D-01 0.121D+01
 Gap=     0.346 Goal=   None    Shift=    0.000
 RMSDP=1.53D-06 MaxDP=1.07D-04 DE=-1.88D-08 OVMax= 5.92D-05

 Cycle  11  Pass 1  IDiag  1:
 RMSU=  7.02D-07    CP:  7.74D-01  1.57D+00  9.62D-01  7.74D-01  1.42D+00
                    CP:  1.03D+00  1.19D+00  1.36D+00  1.01D+00  1.50D+00
 E= -389.240427972249     Delta-E=       -0.000000003830 Rises=F Damp=F
 DIIS: error= 8.76D-07 at cycle  11 NSaved=  11.
 NSaved=11 IEnMin=11 EnMin= -389.240427972249     IErMin=11 ErrMin= 8.76D-07
 ErrMax= 8.76D-07  0.00D+00 EMaxC= 1.00D-01 BMatC= 7.99D-11 BMatP= 1.05D-09
 IDIUse=1 WtCom= 1.00D+00 WtEn= 0.00D+00
 Coeff-Com: -0.500D-04 0.983D-04 0.289D-03 0.224D-03-0.175D-02-0.277D-02
 Coeff-Com:  0.743D-02 0.162D-01-0.570D-01-0.246D+00 0.128D+01
 Coeff:     -0.500D-04 0.983D-04 0.289D-03 0.224D-03-0.175D-02-0.277D-02
 Coeff:      0.743D-02 0.162D-01-0.570D-01-0.246D+00 0.128D+01
 Gap=     0.346 Goal=   None    Shift=    0.000
 RMSDP=5.31D-07 MaxDP=1.55D-05 DE=-3.83D-09 OVMax= 1.54D-05

 Cycle  12  Pass 1  IDiag  1:
 RMSU=  1.25D-07    CP:  7.74D-01  1.57D+00  9.62D-01  7.74D-01  1.42D+00
                    CP:  1.03D+00  1.19D+00  1.35D+00  9.97D-01  1.64D+00
                    CP:  1.36D+00
 E= -389.240427972519     Delta-E=       -0.000000000270 Rises=F Damp=F
 DIIS: error= 2.40D-07 at cycle  12 NSaved=  12.
 NSaved=12 IEnMin=12 EnMin= -389.240427972519     IErMin=12 ErrMin= 2.40D-07
 ErrMax= 2.40D-07  0.00D+00 EMaxC= 1.00D-01 BMatC= 3.91D-12 BMatP= 7.99D-11
 IDIUse=1 WtCom= 1.00D+00 WtEn= 0.00D+00
 Coeff-Com: -0.225D-04 0.418D-04 0.132D-03 0.140D-03-0.596D-03-0.132D-02
 Coeff-Com:  0.117D-02 0.130D-01-0.309D-02-0.675D-01 0.324D-01 0.103D+01
 Coeff:     -0.225D-04 0.418D-04 0.132D-03 0.140D-03-0.596D-03-0.132D-02
 Coeff:      0.117D-02 0.130D-01-0.309D-02-0.675D-01 0.324D-01 0.103D+01
 Gap=     0.346 Goal=   None    Shift=    0.000
 RMSDP=1.09D-07 MaxDP=5.15D-06 DE=-2.70D-10 OVMax= 2.14D-06

 Cycle  13  Pass 1  IDiag  1:
 RMSU=  4.34D-08    CP:  7.74D-01  1.57D+00  9.62D-01  7.74D-01  1.42D+00
                    CP:  1.03D+00  1.19D+00  1.35D+00  9.97D-01  1.65D+00
                    CP:  1.39D+00  1.27D+00
 E= -389.240427972537     Delta-E=       -0.000000000018 Rises=F Damp=F
 DIIS: error= 5.76D-08 at cycle  13 NSaved=  13.
 NSaved=13 IEnMin=13 EnMin= -389.240427972537     IErMin=13 ErrMin= 5.76D-08
 ErrMax= 5.76D-08  0.00D+00 EMaxC= 1.00D-01 BMatC= 8.80D-13 BMatP= 3.91D-12
 IDIUse=1 WtCom= 1.00D+00 WtEn= 0.00D+00
 Coeff-Com: -0.151D-05 0.210D-05 0.841D-05 0.195D-04 0.402D-05-0.131D-03
 Coeff-Com: -0.637D-03 0.248D-02 0.575D-02 0.860D-02-0.178D+00 0.296D+00
 Coeff-Com:  0.867D+00
 Coeff:     -0.151D-05 0.210D-05 0.841D-05 0.195D-04 0.402D-05-0.131D-03
 Coeff:     -0.637D-03 0.248D-02 0.575D-02 0.860D-02-0.178D+00 0.296D+00
 Coeff:      0.867D+00
 Gap=     0.346 Goal=   None    Shift=    0.000
 RMSDP=3.73D-08 MaxDP=1.61D-06 DE=-1.80D-11 OVMax= 8.16D-07

 Cycle  14  Pass 1  IDiag  1:
 RMSU=  1.26D-08    CP:  7.74D-01  1.57D+00  9.62D-01  7.74D-01  1.42D+00
                    CP:  1.03D+00  1.19D+00  1.35D+00  9.97D-01  1.65D+00
                    CP:  1.41D+00  1.43D+00  1.17D+00
 E= -389.240427972531     Delta-E=        0.000000000006 Rises=F Damp=F
 DIIS: error= 1.74D-08 at cycle  14 NSaved=  14.
 NSaved=14 IEnMin=13 EnMin= -389.240427972537     IErMin=14 ErrMin= 1.74D-08
 ErrMax= 1.74D-08  0.00D+00 EMaxC= 1.00D-01 BMatC= 2.59D-14 BMatP= 8.80D-13
 IDIUse=1 WtCom= 1.00D+00 WtEn= 0.00D+00
 Coeff-Com:  0.141D-05-0.270D-05-0.814D-05-0.646D-05 0.444D-04 0.729D-04
 Coeff-Com: -0.132D-03-0.666D-03 0.746D-03 0.620D-02-0.150D-01-0.558D-01
 Coeff-Com:  0.297D-01 0.103D+01
 Coeff:      0.141D-05-0.270D-05-0.814D-05-0.646D-05 0.444D-04 0.729D-04
 Coeff:     -0.132D-03-0.666D-03 0.746D-03 0.620D-02-0.150D-01-0.558D-01
 Coeff:      0.297D-01 0.103D+01
 Gap=     0.346 Goal=   None    Shift=    0.000
 RMSDP=8.72D-09 MaxDP=2.50D-07 DE= 5.68D-12 OVMax= 2.48D-07

 SCF Done:  E(RwB97X) =  -389.240427973     A.U. after   14 cycles
            NFock= 14  Conv=0.87D-08     -V/T= 2.0066
 KE= 3.867052992941D+02 PE=-1.809029763949D+03 EE= 5.796750160857D+02
 Leave Link  502 at Thu Nov 20 19:38:36 2025, MaxMem= 12079595520 cpu:            2121.8 elap:              53.7
 (Enter /local/gaussian-16.A03/g16/l801.exe)
 DoSCS=F DFT=T ScalE2(SS,OS)=  1.000000  1.000000
 Range of M.O.s used for correlation:     1   302
 NBasis=   302 NAE=    34 NBE=    34 NFC=     0 NFV=     0
 NROrb=    302 NOA=    34 NOB=    34 NVA=   268 NVB=   268

 **** Warning!!: The largest alpha MO coefficient is  0.98552609D+02

 Leave Link  801 at Thu Nov 20 19:38:36 2025, MaxMem= 12079595520 cpu:               5.8 elap:               0.2
 (Enter /local/gaussian-16.A03/g16/l1002.exe)
 Minotr:  Closed shell wavefunction.
          Direct CPHF calculation.
          Differentiating once with respect to magnetic field using GIAOs.
          Electric field/nuclear overlap derivatives assumed to be zero.
          Requested convergence is 1.0D-08 RMS, and 1.0D-07 maximum.
          Secondary convergence is 1.0D-12 RMS, and 1.0D-12 maximum.
          NewPWx=T KeepS1=F KeepF1=F KeepIn=T MapXYZ=F SortEE=F KeepMc=T.
         6409 words used for storage of precomputed grid.
 Two-electron integral symmetry not used.
          MDV=   12079595520 using IRadAn=       1.
          Solving linear equations simultaneously, MaxMat=     360.
 FoFCou: FMM=F IPFlag=           0 FMFlag=      100000 FMFlg1=           0
         NFxFlg=           0 DoJE=F BraDBF=F KetDBF=T FulRan=T
         wScrn=  0.000000 ICntrl=      6100 IOpCl=  0 I1Cent=           7 NGrid=          27
         NMat0=    1 NMatS0=      1 NMatT0=    0 NMatD0=    1 NMtDS0=    0 NMtDT0=    0
 Symmetry not used in FoFCou.
 FoFJK:  IHMeth= 1 ICntrl=    6127 DoSepK=T KAlg= 0 I1Cent=           0 FoldK=F
 IRaf=         1 NMat=       1 IRICut=       1 DoRegI=T DoRafI=F ISym2E= 0 IDoP0=0 IntGTp=1.
          There are     3 degrees of freedom in the 1st order CPHF.  IDoFFX=0 NUNeed=     3.
      3 vectors produced by pass  0 Test12= 3.04D-13 3.33D-08 XBig12= 6.15D+02 1.40D+01.
 AX will form     3 AO Fock derivatives at one time.
      3 vectors produced by pass  1 Test12= 3.04D-13 3.33D-08 XBig12= 3.59D+00 4.57D-01.
      3 vectors produced by pass  2 Test12= 3.04D-13 3.33D-08 XBig12= 5.23D-02 9.08D-02.
      3 vectors produced by pass  3 Test12= 3.04D-13 3.33D-08 XBig12= 1.77D-03 1.88D-02.
      3 vectors produced by pass  4 Test12= 3.04D-13 3.33D-08 XBig12= 3.17D-05 1.45D-03.
      3 vectors produced by pass  5 Test12= 3.04D-13 3.33D-08 XBig12= 2.13D-07 1.07D-04.
      3 vectors produced by pass  6 Test12= 3.04D-13 3.33D-08 XBig12= 1.47D-09 5.88D-06.
      3 vectors produced by pass  7 Test12= 3.04D-13 3.33D-08 XBig12= 1.35D-11 1.18D-06.
      3 vectors produced by pass  8 Test12= 3.04D-13 3.33D-08 XBig12= 2.40D-13 2.24D-07.
 InvSVY:  IOpt=1 It=  1 EMax= 1.78D-15
 Solved reduced A of dimension    27 with     3 vectors.
 Calculating GIAO nuclear magnetic shielding tensors.
 SCF GIAO Magnetic shielding tensor (ppm):
      1  C    Isotropic =    57.9452   Anisotropy =   189.7176
   XX=    -8.6436   YX=    51.1635   ZX=    -0.0000
   XY=    56.6621   YY=    -1.9445   ZY=    -0.0000
   XZ=    -0.0000   YZ=     0.0000   ZZ=   184.4236
   Eigenvalues:   -59.3108    48.7227   184.4236
      2  C    Isotropic =    84.2833   Anisotropy =   145.0882
   XX=    27.7377   YX=   -56.5117   ZX=    -0.0000
   XY=   -48.1920   YY=    44.1036   ZY=     0.0000
   XZ=    -0.0000   YZ=     0.0000   ZZ=   181.0088
   Eigenvalues:   -17.0669    88.9081   181.0088
      3  C    Isotropic =    62.2658   Anisotropy =   116.6492
   XX=    65.6453   YX=   -25.2328   ZX=    -0.0000
   XY=   -26.3469   YY=   -18.8799   ZY=     0.0000
   XZ=     0.0000   YZ=    -0.0000   ZZ=   140.0319
   Eigenvalues:   -26.1273    72.8927   140.0319
      4  N    Isotropic =    72.9921   Anisotropy =   285.6059
   XX=   -53.4043   YX=    -0.0052   ZX=     0.0000
   XY=    -0.0051   YY=     8.9846   ZY=     0.0000
   XZ=    -0.0000   YZ=     0.0000   ZZ=   263.3961
   Eigenvalues:   -53.4043     8.9846   263.3961
      5  B    Isotropic =    83.8175   Anisotropy =    85.5493
   XX=    71.3001   YX=     0.0026   ZX=     0.0000
   XY=     0.0027   YY=    39.3020   ZY=     0.0000
   XZ=    -0.0000   YZ=     0.0000   ZZ=   140.8503
   Eigenvalues:    39.3020    71.3001   140.8503
      6  C    Isotropic =    65.1420   Anisotropy =   194.7428
   XX=    51.0613   YX=    23.0910   ZX=     0.0000
   XY=    15.2376   YY=   -50.6058   ZY=     0.0000
   XZ=    -0.0000   YZ=    -0.0000   ZZ=   194.9706
   Eigenvalues:   -54.0983    54.5538   194.9706
      7  C    Isotropic =    65.1420   Anisotropy =   194.7427
   XX=    51.0678   YX=   -23.0740   ZX=     0.0000
   XY=   -15.2206   YY=   -50.6122   ZY=     0.0000
   XZ=    -0.0000   YZ=    -0.0000   ZZ=   194.9705
   Eigenvalues:   -54.0983    54.5539   194.9705
      8  C    Isotropic =    57.9452   Anisotropy =   189.7183
   XX=    -8.6262   YX=   -51.1645   ZX=     0.0000
   XY=   -56.6630   YY=    -1.9623   ZY=    -0.0000
   XZ=     0.0000   YZ=    -0.0000   ZZ=   184.4241
   Eigenvalues:   -59.3109    48.7224   184.4241
      9  C    Isotropic =    84.2835   Anisotropy =   145.0889
   XX=    27.7201   YX=    56.5092   ZX=     0.0000
   XY=    48.1894   YY=    44.1209   ZY=    -0.0000
   XZ=    -0.0000   YZ=    -0.0000   ZZ=   181.0094
   Eigenvalues:   -17.0672    88.9082   181.0094
     10  C    Isotropic =    62.2658   Anisotropy =   116.6498
   XX=    65.6368   YX=    25.2469   ZX=    -0.0000
   XY=    26.3610   YY=   -18.8717   ZY=     0.0000
   XZ=     0.0000   YZ=    -0.0000   ZZ=   140.0324
   Eigenvalues:   -26.1277    72.8928   140.0324
     11  H    Isotropic =    23.4238   Anisotropy =     5.6138
   XX=    24.6950   YX=     1.3739   ZX=    -0.0000
   XY=     2.9312   YY=    25.2915   ZY=    -0.0000
   XZ=    -0.0000   YZ=    -0.0000   ZZ=    20.2849
   Eigenvalues:    20.2849    22.8202    27.1664
     12  H    Isotropic =    24.6065   Anisotropy =     4.7812
   XX=    26.3402   YX=    -2.0664   ZX=    -0.0000
   XY=    -0.7681   YY=    26.4123   ZY=     0.0000
   XZ=     0.0000   YZ=    -0.0000   ZZ=    21.0671
   Eigenvalues:    21.0671    24.9585    27.7940
     13  H    Isotropic =    23.4720   Anisotropy =     6.9169
   XX=    28.0769   YX=     0.1785   ZX=    -0.0000
   XY=    -0.5132   YY=    23.6518   ZY=    -0.0000
   XZ=    -0.0000   YZ=     0.0000   ZZ=    18.6872
   Eigenvalues:    18.6872    23.6455    28.0833
     14  H    Isotropic =    23.7750   Anisotropy =     6.3852
   XX=    27.7397   YX=     1.2696   ZX=    -0.0000
   XY=     1.4031   YY=    21.9183   ZY=     0.0000
   XZ=     0.0000   YZ=    -0.0000   ZZ=    21.6671
   Eigenvalues:    21.6262    21.6671    28.0318
     15  H    Isotropic =    23.7751   Anisotropy =     6.3852
   XX=    27.7402   YX=    -1.2686   ZX=     0.0000
   XY=    -1.4021   YY=    21.9179   ZY=     0.0000
   XZ=     0.0000   YZ=    -0.0000   ZZ=    21.6671
   Eigenvalues:    21.6262    21.6671    28.0318
     16  H    Isotropic =    23.4238   Anisotropy =     5.6138
   XX=    24.6957   YX=    -1.3740   ZX=     0.0000
   XY=    -2.9313   YY=    25.2908   ZY=    -0.0000
   XZ=     0.0000   YZ=    -0.0000   ZZ=    20.2849
   Eigenvalues:    20.2849    22.8202    27.1664
     17  H    Isotropic =    24.6065   Anisotropy =     4.7812
   XX=    26.3398   YX=     2.0664   ZX=     0.0000
   XY=     0.7681   YY=    26.4128   ZY=    -0.0000
   XZ=     0.0000   YZ=     0.0000   ZZ=    21.0671
   Eigenvalues:    21.0671    24.9585    27.7940
     18  H    Isotropic =    23.4720   Anisotropy =     6.9170
   XX=    28.0769   YX=    -0.1778   ZX=    -0.0000
   XY=     0.5140   YY=    23.6518   ZY=    -0.0000
   XZ=    -0.0000   YZ=     0.0000   ZZ=    18.6872
   Eigenvalues:    18.6872    23.6454    28.0833
     19  Bq   Isotropic =     7.3184   Anisotropy =    19.9190
   XX=    -0.1861   YX=     0.2086   ZX=     0.5310
   XY=    -0.0745   YY=     1.6612   ZY=    -1.1836
   XZ=     2.5345   YZ=     0.5759   ZZ=    20.4800
   Eigenvalues:    -0.3032     1.6606    20.5977
     20  Bq   Isotropic =     7.3184   Anisotropy =    19.9190
   XX=    -0.1861   YX=     0.2086   ZX=    -0.5310
   XY=    -0.0745   YY=     1.6612   ZY=     1.1836
   XZ=    -2.5345   YZ=    -0.5759   ZZ=    20.4800
   Eigenvalues:    -0.3032     1.6606    20.5977
     21  Bq   Isotropic =     7.3184   Anisotropy =    19.9191
   XX=    -0.1860   YX=    -0.2089   ZX=    -0.5308
   XY=     0.0743   YY=     1.6612   ZY=    -1.1837
   XZ=    -2.5346   YZ=     0.5755   ZZ=    20.4800
   Eigenvalues:    -0.3032     1.6606    20.5978
     22  Bq   Isotropic =     7.3184   Anisotropy =    19.9191
   XX=    -0.1860   YX=    -0.2089   ZX=     0.5308
   XY=     0.0743   YY=     1.6612   ZY=     1.1837
   XZ=     2.5346   YZ=    -0.5755   ZZ=    20.4800
   Eigenvalues:    -0.3032     1.6606    20.5978
     23  Bq   Isotropic =    38.4483   Anisotropy =    41.5309
   XX=    40.1040   YX=     0.0026   ZX=     0.0000
   XY=     0.0026   YY=     9.1053   ZY=     0.0000
   XZ=     0.0000   YZ=     0.0000   ZZ=    66.1356
   Eigenvalues:     9.1053    40.1040    66.1356
     24  Bq   Isotropic =     4.7559   Anisotropy =     3.0758
   XX=     4.6259   YX=    -0.5899   ZX=     0.0000
   XY=    -1.5267   YY=     6.2928   ZY=     0.0000
   XZ=     0.0000   YZ=     0.0000   ZZ=     3.3489
   Eigenvalues:     3.3489     4.1122     6.8064
     25  Bq   Isotropic =     4.7559   Anisotropy =     3.0758
   XX=     4.6255   YX=     0.5897   ZX=    -0.0000
   XY=     1.5264   YY=     6.2931   ZY=     0.0000
   XZ=     0.0000   YZ=     0.0000   ZZ=     3.3491
   Eigenvalues:     3.3491     4.1122     6.8064
     26  Bq   Isotropic =    13.7529   Anisotropy =    29.6234
   XX=     4.6357   YX=     0.0001   ZX=     0.0005
   XY=     0.0001   YY=     3.7194   ZY=    -5.4866
   XZ=     0.0003   YZ=    -2.9553   ZZ=    32.9036
   Eigenvalues:     3.1211     4.6357    33.5018
     27  Bq   Isotropic =    13.7529   Anisotropy =    29.6234
   XX=     4.6357   YX=     0.0001   ZX=    -0.0005
   XY=     0.0001   YY=     3.7194   ZY=     5.4866
   XZ=    -0.0003   YZ=     2.9553   ZZ=    32.9036
   Eigenvalues:     3.1211     4.6357    33.5018
 End of Minotr F.D. properties file   721 does not exist.
 End of Minotr F.D. properties file   722 does not exist.
 End of Minotr F.D. properties file   788 does not exist.
 Leave Link 1002 at Thu Nov 20 19:39:20 2025, MaxMem= 12079595520 cpu:            1697.3 elap:              43.5
 (Enter /local/gaussian-16.A03/g16/l601.exe)
 Copying SCF densities to generalized density rwf, IOpCl= 0 IROHF=0.

 **********************************************************************

            Population analysis using the SCF density.

 **********************************************************************

 Alpha  occ. eigenvalues --  -14.46221 -10.31785 -10.31781 -10.28186 -10.28186
 Alpha  occ. eigenvalues --  -10.27616 -10.27616 -10.24629 -10.24628  -6.81250
 Alpha  occ. eigenvalues --   -1.10478  -0.96285  -0.92575  -0.85864  -0.84751
 Alpha  occ. eigenvalues --   -0.75494  -0.73232  -0.71407  -0.65464  -0.61984
 Alpha  occ. eigenvalues --   -0.60010  -0.55645  -0.55001  -0.54932  -0.54101
 Alpha  occ. eigenvalues --   -0.51445  -0.50284  -0.47187  -0.44335  -0.42693
 Alpha  occ. eigenvalues --   -0.41457  -0.39876  -0.32151  -0.31503
 Alpha virt. eigenvalues --    0.03067   0.03925   0.03988   0.04664   0.04886
 Alpha virt. eigenvalues --    0.06049   0.06157   0.07333   0.07657   0.08412
 Alpha virt. eigenvalues --    0.08443   0.09458   0.09868   0.10196   0.11006
 Alpha virt. eigenvalues --    0.12426   0.13252   0.13524   0.14285   0.14497
 Alpha virt. eigenvalues --    0.15147   0.15377   0.15809   0.16289   0.16643
 Alpha virt. eigenvalues --    0.16863   0.17231   0.18237   0.18265   0.18773
 Alpha virt. eigenvalues --    0.18903   0.19232   0.19835   0.20364   0.20801
 Alpha virt. eigenvalues --    0.20912   0.21056   0.21534   0.23115   0.23656
 Alpha virt. eigenvalues --    0.24867   0.26042   0.26221   0.26962   0.28186
 Alpha virt. eigenvalues --    0.30005   0.30254   0.30747   0.31236   0.31887
 Alpha virt. eigenvalues --    0.31997   0.32040   0.32502   0.32824   0.33718
 Alpha virt. eigenvalues --    0.34558   0.35067   0.35159   0.35532   0.35581
 Alpha virt. eigenvalues --    0.36150   0.37332   0.38836   0.38935   0.39056
 Alpha virt. eigenvalues --    0.39702   0.40636   0.41440   0.42116   0.42540
 Alpha virt. eigenvalues --    0.43316   0.43437   0.43934   0.44150   0.44980
 Alpha virt. eigenvalues --    0.46733   0.49235   0.49725   0.50361   0.50386
 Alpha virt. eigenvalues --    0.51197   0.51272   0.52683   0.53042   0.54146
 Alpha virt. eigenvalues --    0.54232   0.55560   0.55665   0.56890   0.57041
 Alpha virt. eigenvalues --    0.57487   0.58817   0.58880   0.59438   0.59965
 Alpha virt. eigenvalues --    0.61289   0.62266   0.63891   0.64496   0.65324
 Alpha virt. eigenvalues --    0.65873   0.65994   0.67030   0.67573   0.67638
 Alpha virt. eigenvalues --    0.68547   0.69208   0.69433   0.69571   0.70181
 Alpha virt. eigenvalues --    0.70317   0.72756   0.73373   0.74064   0.74116
 Alpha virt. eigenvalues --    0.75042   0.75132   0.75452   0.75945   0.76880
 Alpha virt. eigenvalues --    0.77115   0.78333   0.78796   0.78902   0.80504
 Alpha virt. eigenvalues --    0.81351   0.82725   0.82762   0.83506   0.85174
 Alpha virt. eigenvalues --    0.86669   0.87345   0.87404   0.87405   0.88085
 Alpha virt. eigenvalues --    0.88431   0.89130   0.90896   0.91483   0.94594
 Alpha virt. eigenvalues --    0.96402   0.97353   0.97542   0.99202   1.02860
 Alpha virt. eigenvalues --    1.02878   1.03120   1.03326   1.04092   1.06163
 Alpha virt. eigenvalues --    1.07222   1.08155   1.08670   1.10400   1.16041
 Alpha virt. eigenvalues --    1.16128   1.16558   1.17457   1.20394   1.21986
 Alpha virt. eigenvalues --    1.26017   1.35517   1.36233   1.37772   1.37888
 Alpha virt. eigenvalues --    1.39355   1.41622   1.42202   1.46118   1.46278
 Alpha virt. eigenvalues --    1.46646   1.47094   1.48478   1.48694   1.49997
 Alpha virt. eigenvalues --    1.51379   1.51499   1.51694   1.53824   1.54017
 Alpha virt. eigenvalues --    1.54388   1.56319   1.58122   1.59036   1.60128
 Alpha virt. eigenvalues --    1.60308   1.61110   1.61902   1.62800   1.65562
 Alpha virt. eigenvalues --    1.66036   1.67043   1.67099   1.69739   1.73976
 Alpha virt. eigenvalues --    1.74071   1.76781   1.76957   1.77721   1.77967
 Alpha virt. eigenvalues --    1.78612   1.80985   1.82399   1.83954   1.87241
 Alpha virt. eigenvalues --    1.90413   1.90607   1.91391   1.94014   1.95202
 Alpha virt. eigenvalues --    1.95470   1.96964   1.97363   1.98312   1.98339
 Alpha virt. eigenvalues --    2.00024   2.01414   2.03914   2.06195   2.08531
 Alpha virt. eigenvalues --    2.11263   2.11443   2.12897   2.16359   2.16643
 Alpha virt. eigenvalues --    2.18149   2.18986   2.21094   2.21261   2.23388
 Alpha virt. eigenvalues --    2.25035   2.27761   2.29256   2.30116   2.36684
 Alpha virt. eigenvalues --    2.38695   2.40613   2.41737   2.43161   2.43747
 Alpha virt. eigenvalues --    2.55176   2.55912   2.60762   2.61190   2.64311
 Alpha virt. eigenvalues --    2.64845   2.68820   2.70551   2.71314   2.75680
 Alpha virt. eigenvalues --    2.77129   2.80361   2.84087   2.86091   2.90846
 Alpha virt. eigenvalues --    2.93529   2.93580   3.05812   3.07669   3.12026
 Alpha virt. eigenvalues --    3.13615   3.28163   3.36512   3.42482   3.50684
 Alpha virt. eigenvalues --    3.99201   4.34955   4.40054
          Condensed to atoms (all electrons):
               1          2          3          4          5          6
     1  C    9.708130  -2.067457   1.637765  -0.193817  -0.294739  -2.885876
     2  C   -2.067457  12.733807  -6.126255   0.069543   0.003426   2.083802
     3  C    1.637765  -6.126255  14.712054  -0.143175  -0.199354  -4.149653
     4  N   -0.193817   0.069543  -0.143175   7.322944   0.078051   0.260628
     5  B   -0.294739   0.003426  -0.199354   0.078051   5.335570   0.656607
     6  C   -2.885876   2.083802  -4.149653   0.260628   0.656607  10.449861
     7  C    0.376156  -0.602946  -0.060443   0.260627   0.656609   0.429037
     8  C   -0.854527   0.655089  -0.746466  -0.193816  -0.294740   0.376157
     9  C    0.655090  -1.923878   0.678795   0.069534   0.003427  -0.602946
    10  C   -0.746465   0.678794   0.063821  -0.143167  -0.199358  -0.060445
    11  H   -0.990137   0.325227   0.063831   0.002065   0.053809   0.155684
    12  H    0.225521  -1.442496   0.944006   0.015249  -0.052016  -0.237347
    13  H    0.062580   0.598546  -1.426312  -0.226661   0.116321   0.190559
    14  H    1.116027  -0.107853   0.397069  -0.042958  -0.469265  -1.742256
    15  H   -0.088079   0.032039   0.031902  -0.042958  -0.469266  -0.148818
    16  H   -0.018133   0.020381   0.035203   0.002065   0.053809  -0.007223
    17  H    0.005091   0.001184   0.091980   0.015250  -0.052016   0.006258
    18  H   -0.048140   0.025983  -0.283503  -0.226664   0.116321   0.039167
    19  Bq   0.000000   0.000000   0.000000   0.000000   0.000000   0.000000
    20  Bq   0.000000   0.000000   0.000000   0.000000   0.000000   0.000000
    21  Bq   0.000000   0.000000   0.000000   0.000000   0.000000   0.000000
    22  Bq   0.000000   0.000000   0.000000   0.000000   0.000000   0.000000
    23  Bq   0.000000   0.000000   0.000000   0.000000   0.000000   0.000000
    24  Bq   0.000000   0.000000   0.000000   0.000000   0.000000   0.000000
    25  Bq   0.000000   0.000000   0.000000   0.000000   0.000000   0.000000
    26  Bq   0.000000   0.000000   0.000000   0.000000   0.000000   0.000000
    27  Bq   0.000000   0.000000   0.000000   0.000000   0.000000   0.000000
               7          8          9         10         11         12
     1  C    0.376156  -0.854527   0.655090  -0.746465  -0.990137   0.225521
     2  C   -0.602946   0.655089  -1.923878   0.678794   0.325227  -1.442496
     3  C   -0.060443  -0.746466   0.678795   0.063821   0.063831   0.944006
     4  N    0.260627  -0.193816   0.069534  -0.143167   0.002065   0.015249
     5  B    0.656609  -0.294740   0.003427  -0.199358   0.053809  -0.052016
     6  C    0.429037   0.376157  -0.602946  -0.060445   0.155684  -0.237347
     7  C   10.449857  -2.885863   2.083795  -4.149648  -0.007222   0.006258
     8  C   -2.885863   9.708117  -2.067443   1.637754  -0.018133   0.005091
     9  C    2.083795  -2.067443  12.733794  -6.126245   0.020381   0.001184
    10  C   -4.149648   1.637754  -6.126245  14.712046   0.035203   0.091979
    11  H   -0.007222  -0.018133   0.020381   0.035203   2.391015  -0.090562
    12  H    0.006258   0.005091   0.001184   0.091979  -0.090562   2.383750
    13  H    0.039167  -0.048140   0.025983  -0.283505  -0.019381  -0.164160
    14  H   -0.148818  -0.088079   0.032039   0.031902  -0.219030  -0.007284
    15  H   -1.742255   1.116026  -0.107851   0.397068  -0.002243   0.002670
    16  H    0.155682  -0.990132   0.325226   0.063831   0.000419  -0.000485
    17  H   -0.237348   0.225518  -1.442495   0.944008  -0.000485   0.001921
    18  H    0.190559   0.062580   0.598543  -1.426310   0.001971  -0.004515
    19  Bq   0.000000   0.000000   0.000000   0.000000   0.000000   0.000000
    20  Bq   0.000000   0.000000   0.000000   0.000000   0.000000   0.000000
    21  Bq   0.000000   0.000000   0.000000   0.000000   0.000000   0.000000
    22  Bq   0.000000   0.000000   0.000000   0.000000   0.000000   0.000000
    23  Bq   0.000000   0.000000   0.000000   0.000000   0.000000   0.000000
    24  Bq   0.000000   0.000000   0.000000   0.000000   0.000000   0.000000
    25  Bq   0.000000   0.000000   0.000000   0.000000   0.000000   0.000000
    26  Bq   0.000000   0.000000   0.000000   0.000000   0.000000   0.000000
    27  Bq   0.000000   0.000000   0.000000   0.000000   0.000000   0.000000
              13         14         15         16         17         18
     1  C    0.062580   1.116027  -0.088079  -0.018133   0.005091  -0.048140
     2  C    0.598546  -0.107853   0.032039   0.020381   0.001184   0.025983
     3  C   -1.426312   0.397069   0.031902   0.035203   0.091980  -0.283503
     4  N   -0.226661  -0.042958  -0.042958   0.002065   0.015250  -0.226664
     5  B    0.116321  -0.469265  -0.469266   0.053809  -0.052016   0.116321
     6  C    0.190559  -1.742256  -0.148818  -0.007223   0.006258   0.039167
     7  C    0.039167  -0.148818  -1.742255   0.155682  -0.237348   0.190559
     8  C   -0.048140  -0.088079   1.116026  -0.990132   0.225518   0.062580
     9  C    0.025983   0.032039  -0.107851   0.325226  -1.442495   0.598543
    10  C   -0.283505   0.031902   0.397068   0.063831   0.944008  -1.426310
    11  H   -0.019381  -0.219030  -0.002243   0.000419  -0.000485   0.001971
    12  H   -0.164160  -0.007284   0.002670  -0.000485   0.001921  -0.004515
    13  H    3.310807   0.006329  -0.007768   0.001971  -0.004515  -0.255695
    14  H    0.006329   3.131737  -0.032878  -0.002243   0.002670  -0.007768
    15  H   -0.007768  -0.032878   3.131736  -0.219029  -0.007284   0.006328
    16  H    0.001971  -0.002243  -0.219029   2.391012  -0.090561  -0.019381
    17  H   -0.004515   0.002670  -0.007284  -0.090561   2.383750  -0.164161
    18  H   -0.255695  -0.007768   0.006328  -0.019381  -0.164161   3.310810
    19  Bq   0.000000   0.000000   0.000000   0.000000   0.000000   0.000000
    20  Bq   0.000000   0.000000   0.000000   0.000000   0.000000   0.000000
    21  Bq   0.000000   0.000000   0.000000   0.000000   0.000000   0.000000
    22  Bq   0.000000   0.000000   0.000000   0.000000   0.000000   0.000000
    23  Bq   0.000000   0.000000   0.000000   0.000000   0.000000   0.000000
    24  Bq   0.000000   0.000000   0.000000   0.000000   0.000000   0.000000
    25  Bq   0.000000   0.000000   0.000000   0.000000   0.000000   0.000000
    26  Bq   0.000000   0.000000   0.000000   0.000000   0.000000   0.000000
    27  Bq   0.000000   0.000000   0.000000   0.000000   0.000000   0.000000
              19         20         21         22         23         24
     1  C    0.000000   0.000000   0.000000   0.000000   0.000000   0.000000
     2  C    0.000000   0.000000   0.000000   0.000000   0.000000   0.000000
     3  C    0.000000   0.000000   0.000000   0.000000   0.000000   0.000000
     4  N    0.000000   0.000000   0.000000   0.000000   0.000000   0.000000
     5  B    0.000000   0.000000   0.000000   0.000000   0.000000   0.000000
     6  C    0.000000   0.000000   0.000000   0.000000   0.000000   0.000000
     7  C    0.000000   0.000000   0.000000   0.000000   0.000000   0.000000
     8  C    0.000000   0.000000   0.000000   0.000000   0.000000   0.000000
     9  C    0.000000   0.000000   0.000000   0.000000   0.000000   0.000000
    10  C    0.000000   0.000000   0.000000   0.000000   0.000000   0.000000
    11  H    0.000000   0.000000   0.000000   0.000000   0.000000   0.000000
    12  H    0.000000   0.000000   0.000000   0.000000   0.000000   0.000000
    13  H    0.000000   0.000000   0.000000   0.000000   0.000000   0.000000
    14  H    0.000000   0.000000   0.000000   0.000000   0.000000   0.000000
    15  H    0.000000   0.000000   0.000000   0.000000   0.000000   0.000000
    16  H    0.000000   0.000000   0.000000   0.000000   0.000000   0.000000
    17  H    0.000000   0.000000   0.000000   0.000000   0.000000   0.000000
    18  H    0.000000   0.000000   0.000000   0.000000   0.000000   0.000000
    19  Bq   0.000000   0.000000   0.000000   0.000000   0.000000   0.000000
    20  Bq   0.000000   0.000000   0.000000   0.000000   0.000000   0.000000
    21  Bq   0.000000   0.000000   0.000000   0.000000   0.000000   0.000000
    22  Bq   0.000000   0.000000   0.000000   0.000000   0.000000   0.000000
    23  Bq   0.000000   0.000000   0.000000   0.000000   0.000000   0.000000
    24  Bq   0.000000   0.000000   0.000000   0.000000   0.000000   0.000000
    25  Bq   0.000000   0.000000   0.000000   0.000000   0.000000   0.000000
    26  Bq   0.000000   0.000000   0.000000   0.000000   0.000000   0.000000
    27  Bq   0.000000   0.000000   0.000000   0.000000   0.000000   0.000000
              25         26         27
     1  C    0.000000   0.000000   0.000000
     2  C    0.000000   0.000000   0.000000
     3  C    0.000000   0.000000   0.000000
     4  N    0.000000   0.000000   0.000000
     5  B    0.000000   0.000000   0.000000
     6  C    0.000000   0.000000   0.000000
     7  C    0.000000   0.000000   0.000000
     8  C    0.000000   0.000000   0.000000
     9  C    0.000000   0.000000   0.000000
    10  C    0.000000   0.000000   0.000000
    11  H    0.000000   0.000000   0.000000
    12  H    0.000000   0.000000   0.000000
    13  H    0.000000   0.000000   0.000000
    14  H    0.000000   0.000000   0.000000
    15  H    0.000000   0.000000   0.000000
    16  H    0.000000   0.000000   0.000000
    17  H    0.000000   0.000000   0.000000
    18  H    0.000000   0.000000   0.000000
    19  Bq   0.000000   0.000000   0.000000
    20  Bq   0.000000   0.000000   0.000000
    21  Bq   0.000000   0.000000   0.000000
    22  Bq   0.000000   0.000000   0.000000
    23  Bq   0.000000   0.000000   0.000000
    24  Bq   0.000000   0.000000   0.000000
    25  Bq   0.000000   0.000000   0.000000
    26  Bq   0.000000   0.000000   0.000000
    27  Bq   0.000000   0.000000   0.000000
 Mulliken charges:
               1
     1  C    0.401010
     2  C    1.043065
     3  C    0.478737
     4  N    0.117259
     5  B   -0.043196
     6  C    1.186803
     7  C    1.186798
     8  C    0.401008
     9  C    1.043067
    10  C    0.478735
    11  H   -0.702413
    12  H   -0.678763
    13  H   -0.916125
    14  H   -0.849341
    15  H   -0.849341
    16  H   -0.702412
    17  H   -0.678765
    18  H   -0.916126
    19  Bq   0.000000
    20  Bq   0.000000
    21  Bq   0.000000
    22  Bq   0.000000
    23  Bq   0.000000
    24  Bq   0.000000
    25  Bq   0.000000
    26  Bq   0.000000
    27  Bq   0.000000
 Sum of Mulliken charges =  -0.00000
 Mulliken charges with hydrogens summed into heavy atoms:
               1
     1  C   -0.301403
     2  C    0.364302
     3  C   -0.437388
     4  N    0.117259
     5  B   -0.043196
     6  C    0.337461
     7  C    0.337458
     8  C   -0.301404
     9  C    0.364302
    10  C   -0.437390
    19  Bq   0.000000
    20  Bq   0.000000
    21  Bq   0.000000
    22  Bq   0.000000
    23  Bq   0.000000
    24  Bq   0.000000
    25  Bq   0.000000
    26  Bq   0.000000
    27  Bq   0.000000
 Electronic spatial extent (au):  <R**2>=           1319.4479
 Charge=             -0.0000 electrons
 Dipole moment (field-independent basis, Debye):
    X=             -0.0001    Y=              1.6272    Z=              0.0000  Tot=              1.6272
 Quadrupole moment (field-independent basis, Debye-Ang):
   XX=            -52.1966   YY=            -52.5238   ZZ=            -64.3084
   XY=              0.0000   XZ=              0.0000   YZ=             -0.0000
 Traceless Quadrupole moment (field-independent basis, Debye-Ang):
   XX=              4.1463   YY=              3.8191   ZZ=             -7.9655
   XY=              0.0000   XZ=              0.0000   YZ=             -0.0000
 Octapole moment (field-independent basis, Debye-Ang**2):
  XXX=              0.0007  YYY=             11.8697  ZZZ=              0.0000  XYY=             -0.0001
  XXY=              2.7936  XXZ=              0.0000  XZZ=              0.0004  YZZ=              2.2416
  YYZ=              0.0000  XYZ=              0.0000
 Hexadecapole moment (field-independent basis, Debye-Ang**3):
 XXXX=          -1120.6812 YYYY=           -500.1627 ZZZZ=            -78.0513 XXXY=             -0.0234
 XXXZ=             -0.0000 YYYX=             -0.0282 YYYZ=             -0.0000 ZZZX=              0.0000
 ZZZY=             -0.0000 XXYY=           -279.6573 XXZZ=           -249.3209 YYZZ=           -117.6715
 XXYZ=             -0.0000 YYXZ=              0.0000 ZZXY=             -0.0109
 N-N= 4.534090205962D+02 E-N=-1.809029764168D+03  KE= 3.867052992941D+02
 Calculating spin-rotation constants.
 Leave Link  601 at Thu Nov 20 19:39:26 2025, MaxMem= 12079595520 cpu:              56.2 elap:               6.0
 (Enter /local/gaussian-16.A03/g16/l9999.exe)
 1\1\GINC-WUX39\SP\RwB97X\Aug-CC-pVDZ\C8H8B1N1\BUEHLERM\20-Nov-2025\0\\
 #p nmr=giao wb97x/aug-cc-pvdz nosymm guess=save\\File Created by py.Ar
 oma 5\\0,1\C,0,2.495478,-0.691469,0.\C,0,2.394779,0.738312,0.\C,0,1.18
 8482,1.36202,0.\N,0,-0.000063,0.656404,0.\B,0,0.000059,-0.809827,0.\C,
 0,1.374044,-1.471178,0.\C,0,-1.373817,-1.471406,0.\C,0,-2.49538,-0.691
 882,0.\C,0,-2.394918,0.737916,0.\C,0,-1.188723,1.361823,0.\H,0,3.49524
 4,-1.132142,0.\H,0,3.294267,1.351541,0.\H,0,1.103465,2.448604,0.\H,0,1
 .495893,-2.55655,0.\H,0,-1.495487,-2.556798,0.\H,0,-3.495074,-1.132719
 ,0.\H,0,-3.294506,1.350998,0.\H,0,-1.103887,2.448421,0.\Bq,0,1.24213,-
 0.035956,1.\Bq,0,1.24213,-0.035956,-1.\Bq,0,-1.24214,-0.036162,1.\Bq,0
 ,-1.24214,-0.036162,-1.\Bq,0,-0.000008,-0.003218,0.\Bq,0,1.24213,-0.03
 5956,0.\Bq,0,-1.24214,-0.036162,0.\Bq,0,-0.000002,-0.076712,1.\Bq,0,-0
 .000002,-0.076712,-1.\\Version=ES64L-G16RevA.03\HF=-389.240428\RMSD=8.
 719e-09\Dipole=-0.0000502,0.6401923,0.\Quadrupole=3.0827017,2.8394204,
 -5.9221222,0.0000068,0.,0.\PG=C01 [X(C8H8B1N1)]\\@


 EXPERIMENTALISTS THINK SILICON IS REALLY FUN TO USE
     ITS PLACE IN NOVEL COMPOUNDS IS CERTAIN TO AMUSE
 THEY SIT ALL DAY IN LABORATORIES MAKING ALL THIS SLUDGE
     "LOADED WITH THE SILICON THEY SAY", TO ME IT LOOKS LIKE FUDGE.
 FOR HAPPY THOUGH THEY BE WITH CRUD, I'D LIKE TO KNOW A LITTLE
      ABOUT THE PI BONDS ON THE EDGE AND SIGMAS IN THE MIDDLE.

 SO LETS DERIVE A WAVEFUNCTION.....6-31G*
     USE AN OPTIMAL GEOMETRY AND SEE WHERE ELECTRONS ARE.
 BUT WHAT OF CORRELATION?  ASKS THE WIRY LITTLE SKEPTIC.
     WE'LL THROW IN PERTURBATION AS AN ELECTRON ANTISEPTIC.
 AND WHEN THE PROGRAM GIVES US ANSWERS IN THEM WE CAN TRUST
     SINCE NOBODY CAN MAKE THE STUFF, WE HAVE NO CHOICE, WE MUST.

 SO THEORY GUYS HAVE GOT IT MADE, IN ROOMS FREE OF POLLUTION.
     INSTEAD OF PROBLEMS WITH THE REFLUX, THEY HAVE ONLY SOLUTIONS.
 AND WHEN THE FEDS ANNOUNCE THE LIST OF CARCINOGENIC TERRORS,
     THE THEORISTS SIT SAFELY AT THEIR TERMINALS FIXING ERRORS.
 IN OTHER WORDS, EXPERIMENTALISTS WILL LIKELY DIE OF CANCER
     FROM WORKING HARD YET FRUITLESSLY...TILL THEORY GIVES THE ANSWER.
          -- THOMAS A. HOLME, 1983
 Job cpu time:       0 days  1 hours  6 minutes 20.0 seconds.
 Elapsed time:       0 days  0 hours  1 minutes 46.3 seconds.
 File lengths (MBytes):  RWF=     56 Int=      0 D2E=      0 Chk=      8 Scr=      1
 Normal termination of Gaussian 16 at Thu Nov 20 19:39:26 2025.
