[Molden Format]
[Atoms] Angs
 c       1                    6  2.373648811727e+00 -5.834545129000e-01  6.216808319406e-01
 c       2                    6  2.247697821741e+00  8.554489916646e-01  7.929040138863e-01
 c       3                    6  1.039705085352e+00  1.497266790741e+00  7.132896904101e-01
 n       4                    7 -2.000047120092e-01  8.223489219638e-01  5.510928076497e-01
 b       5                    5 -1.312676035183e-01 -7.041716940514e-01  4.623561278152e-03
 c       6                    6  1.294557473905e+00 -1.335681585704e+00  2.243057461443e-01
 c       7                    6 -1.360443924881e+00 -1.447946872344e+00 -4.816838290025e-01
 c       8                    6 -2.578825908696e+00 -6.683661358686e-01 -6.554060483502e-01
 c       9                    6 -2.333123572030e+00  6.800701249159e-01 -6.113021104412e-01
 c      10                    6 -8.471930842755e-01  9.570310885258e-01 -6.524459671755e-01
 h      11                    1  3.353755427613e+00 -1.041047619630e+00  8.019171856005e-01
 h      12                    1  3.133674269035e+00  1.464884703497e+00  9.924357056818e-01
 h      13                    1  9.411353612540e-01  2.579189518999e+00  8.197678640647e-01
 h      14                    1  1.426434011161e+00 -2.423574674389e+00  1.378580648920e-01
 h      15                    1 -1.338545859631e+00 -2.522023373715e+00 -7.274662424284e-01
 h      16                    1 -3.575872976814e+00 -1.116986321826e+00 -6.434031512554e-01
 h      17                    1 -3.065046244021e+00  1.470613163404e+00 -4.031294485505e-01
 h      18                    1 -3.802843759130e-01  1.516399486716e+00 -1.485038674344e+00
[GTO]
1
 s           8
      6.665000000000e+03      6.915839628130e-04
      1.000000000000e+03      5.325796152934e-03
      2.280000000000e+02      2.706072104203e-02
      6.471000000000e+01      1.016568461408e-01
      2.106000000000e+01      2.745748236174e-01
      7.495000000000e+00      4.482943189238e-01
      2.797000000000e+00      2.849026107152e-01
      5.215000000000e-01      1.519485920608e-02
 s           8
      6.665000000000e+03     -2.932696526865e-04
      1.000000000000e+03     -2.318035473975e-03
      2.280000000000e+02     -1.149978603857e-02
      6.471000000000e+01     -4.682672700979e-02
      2.106000000000e+01     -1.284661687505e-01
      7.495000000000e+00     -3.012662724629e-01
      2.797000000000e+00     -2.556307023301e-01
      5.215000000000e-01      1.093793361012e+00
 s           1
      1.596000000000e-01      1.000000000000e+00
 s           1
      4.690000000000e-02      1.000000000000e+00
 p           3
      9.439000000000e+00      5.697925159004e-02
      2.002000000000e+00      3.132072115007e-01
      5.456000000000e-01      7.603767417375e-01
 p           1
      1.517000000000e-01      1.000000000000e+00
 p           1
      4.041000000000e-02      1.000000000000e+00
 d           1
      5.500000000000e-01      1.000000000000e+00
 d           1
      1.510000000000e-01      1.000000000000e+00

2
 s           8
      6.665000000000e+03      6.915839628130e-04
      1.000000000000e+03      5.325796152934e-03
      2.280000000000e+02      2.706072104203e-02
      6.471000000000e+01      1.016568461408e-01
      2.106000000000e+01      2.745748236174e-01
      7.495000000000e+00      4.482943189238e-01
      2.797000000000e+00      2.849026107152e-01
      5.215000000000e-01      1.519485920608e-02
 s           8
      6.665000000000e+03     -2.932696526865e-04
      1.000000000000e+03     -2.318035473975e-03
      2.280000000000e+02     -1.149978603857e-02
      6.471000000000e+01     -4.682672700979e-02
      2.106000000000e+01     -1.284661687505e-01
      7.495000000000e+00     -3.012662724629e-01
      2.797000000000e+00     -2.556307023301e-01
      5.215000000000e-01      1.093793361012e+00
 s           1
      1.596000000000e-01      1.000000000000e+00
 s           1
      4.690000000000e-02      1.000000000000e+00
 p           3
      9.439000000000e+00      5.697925159004e-02
      2.002000000000e+00      3.132072115007e-01
      5.456000000000e-01      7.603767417375e-01
 p           1
      1.517000000000e-01      1.000000000000e+00
 p           1
      4.041000000000e-02      1.000000000000e+00
 d           1
      5.500000000000e-01      1.000000000000e+00
 d           1
      1.510000000000e-01      1.000000000000e+00

3
 s           8
      6.665000000000e+03      6.915839628130e-04
      1.000000000000e+03      5.325796152934e-03
      2.280000000000e+02      2.706072104203e-02
      6.471000000000e+01      1.016568461408e-01
      2.106000000000e+01      2.745748236174e-01
      7.495000000000e+00      4.482943189238e-01
      2.797000000000e+00      2.849026107152e-01
      5.215000000000e-01      1.519485920608e-02
 s           8
      6.665000000000e+03     -2.932696526865e-04
      1.000000000000e+03     -2.318035473975e-03
      2.280000000000e+02     -1.149978603857e-02
      6.471000000000e+01     -4.682672700979e-02
      2.106000000000e+01     -1.284661687505e-01
      7.495000000000e+00     -3.012662724629e-01
      2.797000000000e+00     -2.556307023301e-01
      5.215000000000e-01      1.093793361012e+00
 s           1
      1.596000000000e-01      1.000000000000e+00
 s           1
      4.690000000000e-02      1.000000000000e+00
 p           3
      9.439000000000e+00      5.697925159004e-02
      2.002000000000e+00      3.132072115007e-01
      5.456000000000e-01      7.603767417375e-01
 p           1
      1.517000000000e-01      1.000000000000e+00
 p           1
      4.041000000000e-02      1.000000000000e+00
 d           1
      5.500000000000e-01      1.000000000000e+00
 d           1
      1.510000000000e-01      1.000000000000e+00

4
 s           8
      9.046000000000e+03      6.996174134255e-04
      1.357000000000e+03      5.386054629929e-03
      3.093000000000e+02      2.739102118906e-02
      8.773000000000e+01      1.031505919820e-01
      2.856000000000e+01      2.785706633174e-01
      1.021000000000e+01      4.482948494541e-01
      3.838000000000e+00      2.780859283953e-01
      7.466000000000e-01      1.543156123327e-02
 s           8
      9.046000000000e+03     -3.049900959534e-04
      1.357000000000e+03     -2.408026378508e-03
      3.093000000000e+02     -1.194444872518e-02
      8.773000000000e+01     -4.892599290902e-02
      2.856000000000e+01     -1.344727247250e-01
      1.021000000000e+01     -3.151125777001e-01
      3.838000000000e+00     -2.428578325496e-01
      7.466000000000e-01      1.094382206854e+00
 s           1
      2.248000000000e-01      1.000000000000e+00
 s           1
      6.124000000000e-02      1.000000000000e+00
 p           3
      1.355000000000e+01      5.890567677213e-02
      2.917000000000e+00      3.204611067143e-01
      7.973000000000e-01      7.530420617921e-01
 p           1
      2.185000000000e-01      1.000000000000e+00
 p           1
      5.611000000000e-02      1.000000000000e+00
 d           1
      8.170000000000e-01      1.000000000000e+00
 d           1
      2.300000000000e-01      1.000000000000e+00

5
 s           8
      4.570000000000e+03      6.955544180306e-04
      6.859000000000e+02      5.349572988100e-03
      1.565000000000e+02      2.711662870523e-02
      4.447000000000e+01      1.013150961206e-01
      1.448000000000e+01      2.718808293065e-01
      5.131000000000e+00      4.481159306152e-01
      1.898000000000e+00      2.899372621010e-01
      3.329000000000e-01      1.431283099861e-02
 s           8
      4.570000000000e+03     -2.812802240142e-04
      6.859000000000e+02     -2.219887811105e-03
      1.565000000000e+02     -1.101647150743e-02
      4.447000000000e+01     -4.434918985248e-02
      1.448000000000e+01     -1.209120479502e-01
      5.131000000000e+00     -2.807378995535e-01
      1.898000000000e+00     -2.660668087326e-01
      3.329000000000e-01      1.091784130514e+00
 s           1
      1.043000000000e-01      1.000000000000e+00
 s           1
      3.105000000000e-02      1.000000000000e+00
 p           3
      6.001000000000e+00      5.416586334015e-02
      1.241000000000e+00      3.023798901809e-01
      3.364000000000e-01      7.712922165481e-01
 p           1
      9.538000000000e-02      1.000000000000e+00
 p           1
      2.378000000000e-02      1.000000000000e+00
 d           1
      3.430000000000e-01      1.000000000000e+00
 d           1
      9.040000000000e-02      1.000000000000e+00

6
 s           8
      6.665000000000e+03      6.915839628130e-04
      1.000000000000e+03      5.325796152934e-03
      2.280000000000e+02      2.706072104203e-02
      6.471000000000e+01      1.016568461408e-01
      2.106000000000e+01      2.745748236174e-01
      7.495000000000e+00      4.482943189238e-01
      2.797000000000e+00      2.849026107152e-01
      5.215000000000e-01      1.519485920608e-02
 s           8
      6.665000000000e+03     -2.932696526865e-04
      1.000000000000e+03     -2.318035473975e-03
      2.280000000000e+02     -1.149978603857e-02
      6.471000000000e+01     -4.682672700979e-02
      2.106000000000e+01     -1.284661687505e-01
      7.495000000000e+00     -3.012662724629e-01
      2.797000000000e+00     -2.556307023301e-01
      5.215000000000e-01      1.093793361012e+00
 s           1
      1.596000000000e-01      1.000000000000e+00
 s           1
      4.690000000000e-02      1.000000000000e+00
 p           3
      9.439000000000e+00      5.697925159004e-02
      2.002000000000e+00      3.132072115007e-01
      5.456000000000e-01      7.603767417375e-01
 p           1
      1.517000000000e-01      1.000000000000e+00
 p           1
      4.041000000000e-02      1.000000000000e+00
 d           1
      5.500000000000e-01      1.000000000000e+00
 d           1
      1.510000000000e-01      1.000000000000e+00

7
 s           8
      6.665000000000e+03      6.915839628130e-04
      1.000000000000e+03      5.325796152934e-03
      2.280000000000e+02      2.706072104203e-02
      6.471000000000e+01      1.016568461408e-01
      2.106000000000e+01      2.745748236174e-01
      7.495000000000e+00      4.482943189238e-01
      2.797000000000e+00      2.849026107152e-01
      5.215000000000e-01      1.519485920608e-02
 s           8
      6.665000000000e+03     -2.932696526865e-04
      1.000000000000e+03     -2.318035473975e-03
      2.280000000000e+02     -1.149978603857e-02
      6.471000000000e+01     -4.682672700979e-02
      2.106000000000e+01     -1.284661687505e-01
      7.495000000000e+00     -3.012662724629e-01
      2.797000000000e+00     -2.556307023301e-01
      5.215000000000e-01      1.093793361012e+00
 s           1
      1.596000000000e-01      1.000000000000e+00
 s           1
      4.690000000000e-02      1.000000000000e+00
 p           3
      9.439000000000e+00      5.697925159004e-02
      2.002000000000e+00      3.132072115007e-01
      5.456000000000e-01      7.603767417375e-01
 p           1
      1.517000000000e-01      1.000000000000e+00
 p           1
      4.041000000000e-02      1.000000000000e+00
 d           1
      5.500000000000e-01      1.000000000000e+00
 d           1
      1.510000000000e-01      1.000000000000e+00

8
 s           8
      6.665000000000e+03      6.915839628130e-04
      1.000000000000e+03      5.325796152934e-03
      2.280000000000e+02      2.706072104203e-02
      6.471000000000e+01      1.016568461408e-01
      2.106000000000e+01      2.745748236174e-01
      7.495000000000e+00      4.482943189238e-01
      2.797000000000e+00      2.849026107152e-01
      5.215000000000e-01      1.519485920608e-02
 s           8
      6.665000000000e+03     -2.932696526865e-04
      1.000000000000e+03     -2.318035473975e-03
      2.280000000000e+02     -1.149978603857e-02
      6.471000000000e+01     -4.682672700979e-02
      2.106000000000e+01     -1.284661687505e-01
      7.495000000000e+00     -3.012662724629e-01
      2.797000000000e+00     -2.556307023301e-01
      5.215000000000e-01      1.093793361012e+00
 s           1
      1.596000000000e-01      1.000000000000e+00
 s           1
      4.690000000000e-02      1.000000000000e+00
 p           3
      9.439000000000e+00      5.697925159004e-02
      2.002000000000e+00      3.132072115007e-01
      5.456000000000e-01      7.603767417375e-01
 p           1
      1.517000000000e-01      1.000000000000e+00
 p           1
      4.041000000000e-02      1.000000000000e+00
 d           1
      5.500000000000e-01      1.000000000000e+00
 d           1
      1.510000000000e-01      1.000000000000e+00

9
 s           8
      6.665000000000e+03      6.915839628130e-04
      1.000000000000e+03      5.325796152934e-03
      2.280000000000e+02      2.706072104203e-02
      6.471000000000e+01      1.016568461408e-01
      2.106000000000e+01      2.745748236174e-01
      7.495000000000e+00      4.482943189238e-01
      2.797000000000e+00      2.849026107152e-01
      5.215000000000e-01      1.519485920608e-02
 s           8
      6.665000000000e+03     -2.932696526865e-04
      1.000000000000e+03     -2.318035473975e-03
      2.280000000000e+02     -1.149978603857e-02
      6.471000000000e+01     -4.682672700979e-02
      2.106000000000e+01     -1.284661687505e-01
      7.495000000000e+00     -3.012662724629e-01
      2.797000000000e+00     -2.556307023301e-01
      5.215000000000e-01      1.093793361012e+00
 s           1
      1.596000000000e-01      1.000000000000e+00
 s           1
      4.690000000000e-02      1.000000000000e+00
 p           3
      9.439000000000e+00      5.697925159004e-02
      2.002000000000e+00      3.132072115007e-01
      5.456000000000e-01      7.603767417375e-01
 p           1
      1.517000000000e-01      1.000000000000e+00
 p           1
      4.041000000000e-02      1.000000000000e+00
 d           1
      5.500000000000e-01      1.000000000000e+00
 d           1
      1.510000000000e-01      1.000000000000e+00

10
 s           8
      6.665000000000e+03      6.915839628130e-04
      1.000000000000e+03      5.325796152934e-03
      2.280000000000e+02      2.706072104203e-02
      6.471000000000e+01      1.016568461408e-01
      2.106000000000e+01      2.745748236174e-01
      7.495000000000e+00      4.482943189238e-01
      2.797000000000e+00      2.849026107152e-01
      5.215000000000e-01      1.519485920608e-02
 s           8
      6.665000000000e+03     -2.932696526865e-04
      1.000000000000e+03     -2.318035473975e-03
      2.280000000000e+02     -1.149978603857e-02
      6.471000000000e+01     -4.682672700979e-02
      2.106000000000e+01     -1.284661687505e-01
      7.495000000000e+00     -3.012662724629e-01
      2.797000000000e+00     -2.556307023301e-01
      5.215000000000e-01      1.093793361012e+00
 s           1
      1.596000000000e-01      1.000000000000e+00
 s           1
      4.690000000000e-02      1.000000000000e+00
 p           3
      9.439000000000e+00      5.697925159004e-02
      2.002000000000e+00      3.132072115007e-01
      5.456000000000e-01      7.603767417375e-01
 p           1
      1.517000000000e-01      1.000000000000e+00
 p           1
      4.041000000000e-02      1.000000000000e+00
 d           1
      5.500000000000e-01      1.000000000000e+00
 d           1
      1.510000000000e-01      1.000000000000e+00

11
 s           3
      1.301000000000e+01      3.349872639000e-02
      1.962000000000e+00      2.348008011741e-01
      4.446000000000e-01      8.136829578829e-01
 s           1
      1.220000000000e-01      1.000000000000e+00
 s           1
      2.974000000000e-02      1.000000000000e+00
 p           1
      7.270000000000e-01      1.000000000000e+00
 p           1
      1.410000000000e-01      1.000000000000e+00

12
 s           3
      1.301000000000e+01      3.349872639000e-02
      1.962000000000e+00      2.348008011741e-01
      4.446000000000e-01      8.136829578829e-01
 s           1
      1.220000000000e-01      1.000000000000e+00
 s           1
      2.974000000000e-02      1.000000000000e+00
 p           1
      7.270000000000e-01      1.000000000000e+00
 p           1
      1.410000000000e-01      1.000000000000e+00

13
 s           3
      1.301000000000e+01      3.349872639000e-02
      1.962000000000e+00      2.348008011741e-01
      4.446000000000e-01      8.136829578829e-01
 s           1
      1.220000000000e-01      1.000000000000e+00
 s           1
      2.974000000000e-02      1.000000000000e+00
 p           1
      7.270000000000e-01      1.000000000000e+00
 p           1
      1.410000000000e-01      1.000000000000e+00

14
 s           3
      1.301000000000e+01      3.349872639000e-02
      1.962000000000e+00      2.348008011741e-01
      4.446000000000e-01      8.136829578829e-01
 s           1
      1.220000000000e-01      1.000000000000e+00
 s           1
      2.974000000000e-02      1.000000000000e+00
 p           1
      7.270000000000e-01      1.000000000000e+00
 p           1
      1.410000000000e-01      1.000000000000e+00

15
 s           3
      1.301000000000e+01      3.349872639000e-02
      1.962000000000e+00      2.348008011741e-01
      4.446000000000e-01      8.136829578829e-01
 s           1
      1.220000000000e-01      1.000000000000e+00
 s           1
      2.974000000000e-02      1.000000000000e+00
 p           1
      7.270000000000e-01      1.000000000000e+00
 p           1
      1.410000000000e-01      1.000000000000e+00

16
 s           3
      1.301000000000e+01      3.349872639000e-02
      1.962000000000e+00      2.348008011741e-01
      4.446000000000e-01      8.136829578829e-01
 s           1
      1.220000000000e-01      1.000000000000e+00
 s           1
      2.974000000000e-02      1.000000000000e+00
 p           1
      7.270000000000e-01      1.000000000000e+00
 p           1
      1.410000000000e-01      1.000000000000e+00

17
 s           3
      1.301000000000e+01      3.349872639000e-02
      1.962000000000e+00      2.348008011741e-01
      4.446000000000e-01      8.136829578829e-01
 s           1
      1.220000000000e-01      1.000000000000e+00
 s           1
      2.974000000000e-02      1.000000000000e+00
 p           1
      7.270000000000e-01      1.000000000000e+00
 p           1
      1.410000000000e-01      1.000000000000e+00

18
 s           3
      1.301000000000e+01      3.349872639000e-02
      1.962000000000e+00      2.348008011741e-01
      4.446000000000e-01      8.136829578829e-01
 s           1
      1.220000000000e-01      1.000000000000e+00
 s           1
      2.974000000000e-02      1.000000000000e+00
 p           1
      7.270000000000e-01      1.000000000000e+00
 p           1
      1.410000000000e-01      1.000000000000e+00


[5D]
[7F]
[9G]
[MO]
 Ene=  -15.610380
 Spin=  Alpha
 Occup=    2.000000
   1    -0.0001045497024317
   2    -0.0001816325467796
   3     0.0076788449267875
   4    -0.0031702037028096
   5    -0.0000057049898618
   6    -0.0000013892127054
   7     0.0000160013499741
   8    -0.0008094466973401
   9     0.0093927517825738
  10     0.0011089316727948
  11    -0.0017938359978218
  12    -0.0030624960507414
  13    -0.0007477049419669
  14    -0.0000122771344282
  15     0.0000119157383231
  16     0.0000014309186662
  17    -0.0000076447778525
  18    -0.0000305419503498
  19    -0.0001882460940985
  20    -0.0004962188416713
  21    -0.0002776013796144
  22    -0.0017867385671953
  23    -0.0019115303402804
  24     0.0000386778266465
  25     0.0000376846399014
  26     0.0093938979296259
  27    -0.0040442193687138
  28     0.0000716481994174
  29    -0.0000487335439439
  30    -0.0000109196661025
  31    -0.0075985915591616
  32     0.0128902938472170
  33     0.0008335741143556
  34     0.0029668568140405
  35    -0.0038004083028057
  36    -0.0001544481249454
  37     0.0000171648896313
  38    -0.0000301844057510
  39    -0.0000078706871623
  40    -0.0001175076375147
  41    -0.0000627645753486
  42     0.0006118200588454
  43     0.0000056100698772
  44    -0.0011751361504809
  45     0.0040847506943709
  46    -0.0026743416102907
  47     0.0001842511619357
  48     0.0003067918371061
  49    -0.0060676104925191
  50     0.0180866334207522
  51    -0.0003045676833839
  52    -0.0001229386151206
  53    -0.0000839039390388
  54    -0.0171644763607722
  55    -0.0010805690921903
  56    -0.0020709560452120
  57     0.0024740548530666
  58    -0.0024110853739466
  59    -0.0001369946794796
  60    -0.0000443447563241
  61     0.0000110422226447
  62     0.0000237558558792
  63    -0.0001576132018291
  64    -0.0001257122390527
  65    -0.0006590888070333
  66     0.0007181499859602
  67     0.0013382980622507
  68    -0.0009288828583785
  69     0.0074223409702747
  70     1.0031087527418769
  71     0.0052912694490018
  72    -0.0287099227306304
  73    -0.0201125014240633
  74     0.0008552217255316
  75     0.0002156213843609
  76    -0.0015815063026151
  77    -0.0035120261242622
  78    -0.0017005236311754
  79     0.0052019620382195
  80    -0.0041214193927687
  81    -0.0009785526393825
  82     0.0028503404487023
  83     0.0001262880986894
  84     0.0001282970460965
  85    -0.0000356771658466
  86     0.0001141250042497
  87     0.0000907414884842
  88    -0.0006293519515232
  89    -0.0011581507764850
  90    -0.0003833332339200
  91    -0.0010356510323335
  92    -0.0005209203370113
  93     0.0001449635172929
  94     0.0003568890761230
  95     0.0026306653858070
  96    -0.0029796669655019
  97    -0.0000332243371514
  98     0.0004593599148492
  99     0.0001469001325441
 100    -0.0002323244671613
 101    -0.0020879174459185
 102    -0.0007394400482536
 103    -0.0012527110258124
 104    -0.0012507866723910
 105    -0.0006208793069239
 106    -0.0002339881992918
 107     0.0000006241628436
 108     0.0001259046813581
 109    -0.0002057567486579
 110     0.0002081843037634
 111     0.0006062949579822
 112     0.0001239026832767
 113    -0.0005969970813745
 114     0.0020499095840334
 115     0.0005342339216895
 116     0.0000237813474733
 117     0.0000158108240236
 118     0.0035204855912389
 119    -0.0027225889546278
 120     0.0000078458728560
 121    -0.0000170056394578
 122    -0.0000029269645562
 123     0.0023754977206558
 124     0.0008545281340253
 125     0.0009962443839580
 126    -0.0012345232744831
 127     0.0007339672825047
 128    -0.0002418846501085
 129     0.0000479704618463
 130     0.0000146679640799
 131    -0.0000153442078479
 132     0.0000833523761841
 133     0.0000469597470325
 134     0.0000707661244193
 135     0.0001223981892091
 136     0.0001527515577310
 137     0.0005960354131985
 138     0.0002109866169284
 139     0.0000840497242202
 140     0.0001201388301717
 141    -0.0014091957201099
 142    -0.0093417479597471
 143    -0.0000263336105376
 144    -0.0000049374636784
 145    -0.0000230190329451
 146    -0.0018667053083788
 147     0.0006176117468175
 148    -0.0004581978342396
 149     0.0017358852646539
 150    -0.0027117856081882
 151    -0.0001106889290198
 152     0.0000563773567803
 153    -0.0000567859233223
 154    -0.0000374462177346
 155     0.0000077374912309
 156    -0.0000306194009129
 157    -0.0002181832284056
 158     0.0000381392881712
 159    -0.0003294759277883
 160     0.0005165975576114
 161    -0.0006748538838153
 162     0.0000669685406144
 163     0.0001039856762052
 164    -0.0045230132571432
 165     0.0083106810251765
 166     0.0000136088843829
 167    -0.0000415438052468
 168    -0.0000108411185978
 169    -0.0015812774840103
 170    -0.0007727146186003
 171     0.0000724874259445
 172     0.0019352166642092
 173    -0.0010024243913224
 174     0.0003693862956958
 175     0.0000243747752587
 176    -0.0000249713783870
 177    -0.0000112345070084
 178     0.0000096720025746
 179    -0.0000098775509814
 180     0.0001319216396200
 181    -0.0000252494830556
 182     0.0001417424689331
 183     0.0004023078744885
 184     0.0002830876546486
 185    -0.0000218864697421
 186    -0.0000599791234242
 187     0.0038492620916764
 188    -0.0104051902235385
 189    -0.0000420431182632
 190     0.0000148455071541
 191    -0.0000633353587061
 192     0.0005984371441799
 193    -0.0021021433790766
 194    -0.0000685771777430
 195    -0.0030376945970319
 196     0.0001057701675356
 197    -0.0005597639993042
 198     0.0000807382525878
 199    -0.0000724706497230
 200    -0.0000159802202293
 201    -0.0001331932997205
 202     0.0000153028688594
 203    -0.0003825524637905
 204     0.0002136542210407
 205     0.0003832915405293
 206    -0.0007579374582546
 207     0.0001636557506691
 208     0.0001637564831589
 209     0.0002573623210351
 210     0.0091771937623037
 211     0.0168799792851264
 212     0.0002526485671731
 213    -0.0000656643324693
 214     0.0003068526779349
 215     0.0042458944721877
 216    -0.0021268096305883
 217     0.0077784829984895
 218    -0.0022774556194855
 219    -0.0015003892577051
 220     0.0025190478330795
 221    -0.0001796866448633
 222    -0.0001826631225774
 223    -0.0000451918806435
 224     0.0001717113437930
 225     0.0001028515151153
 226     0.0029411528300404
 227     0.0029654842237434
 228    -0.0012826257027514
 229    -0.0010049427889146
 230    -0.0013387885120382
 231     0.0000062711287255
 232     0.0023360997013960
 233     0.0001786803922958
 234     0.0000254937155030
 235    -0.0000046910720739
 236    -0.0000069103659051
 237    -0.0003258516877845
 238     0.0006964104190173
 239    -0.0000883638694436
 240     0.0000705239375314
 241    -0.0021062303040951
 242     0.0002304728403856
 243     0.0000297572243981
 244     0.0000002889300246
 245     0.0000107058568260
 246     0.0007201099742754
 247     0.0009518565148617
 248     0.0002923744191864
 249    -0.0002269349009710
 250     0.0007652940760035
 251     0.0011490083092414
 252     0.0000252770541202
 253     0.0001323511175011
 254     0.0000057889512835
 255    -0.0018578565307326
 256    -0.0004752416596002
 257    -0.0004622957243001
 258     0.0000877871534550
 259     0.0015129797986730
 260     0.0000047142731452
 261    -0.0000068555435837
 262     0.0000329039242134
 263     0.0000040156867094
 264    -0.0004102186281341
 265     0.0001731841173750
 266    -0.0000243082927164
 267     0.0000785604254172
 268     0.0024252365424686
 269    -0.0021534627534444
 270    -0.0000187821681750
 271     0.0000222144426509
 272    -0.0000018905626639
 273     0.0000711330747259
 274     0.0006030508616545
 275     0.0001395620935742
 276     0.0000143226035580
 277    -0.0014432688512014
 278     0.0001563441806581
 279     0.0000273500113539
 280    -0.0000012011126385
 281    -0.0000154928947205
 282    -0.0002631503442242
 283    -0.0001292331966728
 284     0.0000376791961141
 285    -0.0000072339474793
 286     0.0019822382753357
 287    -0.0007282343672139
 288     0.0000308130467221
 289    -0.0000191155260860
 290    -0.0000186736716195
 291     0.0003576455162558
 292    -0.0006141841384128
 293    -0.0001177435179576
 294    -0.0002401851832017
 295     0.0028860338179020
 296     0.0014138134269526
 297    -0.0000050669793857
 298     0.0000580886464534
 299    -0.0002127734135116
 300     0.0011926086138443
 301    -0.0004448698445146
 302     0.0011947209383924
 Ene=  -11.311185
 Spin=  Alpha
 Occup=    2.000000
   1    -0.0000534881665149
   2    -0.0000928328951227
   3     0.0049377128473495
   4    -0.0092233115532192
   5    -0.0000186796526219
   6    -0.0000123569682200
   7    -0.0000280781898776
   8    -0.0007035373001914
   9     0.0074650856118428
  10     0.0007012142122136
  11     0.0023672713424524
  12    -0.0011404595234225
  13     0.0002234763912082
  14    -0.0000464496272798
  15     0.0000148979657187
  16     0.0000088874471335
  17    -0.0000065036839171
  18    -0.0000149802087062
  19    -0.0000715334937227
  20    -0.0001106069210844
  21    -0.0002189855235615
  22    -0.0006814626962071
  23    -0.0015591702476205
  24     0.0000516725475372
  25     0.0000856202106353
  26     0.0103009859734779
  27     0.0119170320758226
  28    -0.0001746813717732
  29     0.0000507513549955
  30    -0.0000335370254646
  31    -0.0087167372276005
  32     0.0091073775798705
  33     0.0001814201270912
  34    -0.0027193741486368
  35    -0.0010525262451288
  36    -0.0002128361940046
  37    -0.0000126314399519
  38     0.0000134708211845
  39    -0.0000178184478632
  40     0.0000915871231493
  41     0.0000099527543956
  42    -0.0000382134890110
  43     0.0000823736661041
  44    -0.0009124581367923
  45     0.0039013037855459
  46    -0.0021277788618554
  47    -0.0002639069100649
  48    -0.0000073540525964
  49    -0.0128629856649766
  50    -0.0068207758560198
  51     0.0002405012765513
  52     0.0000046950848796
  53     0.0001739036196607
  54    -0.0117474514593737
  55     0.0049278196713061
  56    -0.0013573627269327
  57    -0.0018449338125191
  58     0.0025913791481966
  59    -0.0004476291789119
  60     0.0000600692535839
  61     0.0000707000676118
  62    -0.0000471855965839
  63     0.0001567427876599
  64     0.0000898182580254
  65     0.0008328443395101
  66     0.0005550209309294
  67     0.0007096559528217
  68     0.0000036067917165
  69     0.0053146725914336
  70     0.0001958948138781
  71     0.0008909197548072
  72    -0.0046402346325844
  73    -0.0004026262005959
  74    -0.0004897627365581
  75     0.0003560041969053
  76     0.0000517187154378
  77    -0.0020431724118111
  78    -0.0007479099842538
  79     0.0014428422744397
  80    -0.0029248013185772
  81     0.0000811434681665
  82     0.0018121879595817
  83    -0.0000014032500600
  84    -0.0001100596508265
  85    -0.0000076765835845
  86    -0.0001077471793608
  87    -0.0000658874449477
  88    -0.0016018497671943
  89    -0.0003076663853428
  90     0.0000691398589928
  91     0.0005352050705925
  92     0.0002912473618483
  93     0.0001568588477032
  94     0.0002771873807345
  95     0.0054590159574798
  96    -0.0015019559762427
  97    -0.0000275399420261