 Entering Gaussian System, Link 0=g16
 Initial command:
 /local/gaussian-16.A03/g16/l1.exe "/scratch/3071453/NICS_morePoints/Gau-7263.inp" -scrdir="/scratch/3071453/NICS_morePoints/"
 Default CPUs for threads: 0-39
 Default is to use a total of  40 processors:
                               40 via shared-memory
                                1 via Linda
 Entering Link 1 = /local/gaussian-16.A03/g16/l1.exe PID=      7265.
  
 Copyright (c) 1988,1990,1992,1993,1995,1998,2003,2009,2016,
            Gaussian, Inc.  All Rights Reserved.
  
 This is part of the Gaussian(R) 16 program.  It is based on
 the Gaussian(R) 09 system (copyright 2009, Gaussian, Inc.),
 the Gaussian(R) 03 system (copyright 2003, Gaussian, Inc.),
 the Gaussian(R) 98 system (copyright 1998, Gaussian, Inc.),
 the Gaussian(R) 94 system (copyright 1995, Gaussian, Inc.),
 the Gaussian 92(TM) system (copyright 1992, Gaussian, Inc.),
 the Gaussian 90(TM) system (copyright 1990, Gaussian, Inc.),
 the Gaussian 88(TM) system (copyright 1988, Gaussian, Inc.),
 the Gaussian 86(TM) system (copyright 1986, Carnegie Mellon
 University), and the Gaussian 82(TM) system (copyright 1983,
 Carnegie Mellon University). Gaussian is a federally registered
 trademark of Gaussian, Inc.
  
 This software contains proprietary and confidential information,
 including trade secrets, belonging to Gaussian, Inc.
  
 This software is provided under written license and may be
 used, copied, transmitted, or stored only in accord with that
 written license.
  
 The following legend is applicable only to US Government
 contracts under FAR:
  
                    RESTRICTED RIGHTS LEGEND
  
 Use, reproduction and disclosure by the US Government is
 subject to restrictions as set forth in subparagraphs (a)
 and (c) of the Commercial Computer Software - Restricted
 Rights clause in FAR 52.227-19.
  
 Gaussian, Inc.
 340 Quinnipiac St., Bldg. 40, Wallingford CT 06492
  
  
 ---------------------------------------------------------------
 Warning -- This program may not be used in any manner that
 competes with the business of Gaussian, Inc. or will provide
 assistance to any competitor of Gaussian, Inc.  The licensee
 of this program is prohibited from giving any competitor of
 Gaussian, Inc. access to this program.  By using this program,
 the user acknowledges that Gaussian, Inc. is engaged in the
 business of creating and licensing software in the field of
 computational chemistry and represents and warrants to the
 licensee that it is not a competitor of Gaussian, Inc. and that
 it will not use this program in any manner prohibited above.
 ---------------------------------------------------------------
  

 Cite this work as:
 Gaussian 16, Revision A.03,
 M. J. Frisch, G. W. Trucks, H. B. Schlegel, G. E. Scuseria, 
 M. A. Robb, J. R. Cheeseman, G. Scalmani, V. Barone, 
 G. A. Petersson, H. Nakatsuji, X. Li, M. Caricato, A. V. Marenich, 
 J. Bloino, B. G. Janesko, R. Gomperts, B. Mennucci, H. P. Hratchian, 
 J. V. Ortiz, A. F. Izmaylov, J. L. Sonnenberg, D. Williams-Young, 
 F. Ding, F. Lipparini, F. Egidi, J. Goings, B. Peng, A. Petrone, 
 T. Henderson, D. Ranasinghe, V. G. Zakrzewski, J. Gao, N. Rega, 
 G. Zheng, W. Liang, M. Hada, M. Ehara, K. Toyota, R. Fukuda, 
 J. Hasegawa, M. Ishida, T. Nakajima, Y. Honda, O. Kitao, H. Nakai, 
 T. Vreven, K. Throssell, J. A. Montgomery, Jr., J. E. Peralta, 
 F. Ogliaro, M. J. Bearpark, J. J. Heyd, E. N. Brothers, K. N. Kudin, 
 V. N. Staroverov, T. A. Keith, R. Kobayashi, J. Normand, 
 K. Raghavachari, A. P. Rendell, J. C. Burant, S. S. Iyengar, 
 J. Tomasi, M. Cossi, J. M. Millam, M. Klene, C. Adamo, R. Cammi, 
 J. W. Ochterski, R. L. Martin, K. Morokuma, O. Farkas, 
 J. B. Foresman, and D. J. Fox, Gaussian, Inc., Wallingford CT, 2016.
 
 ******************************************
 Gaussian 16:  ES64L-G16RevA.03 25-Dec-2016
                19-Nov-2025 
 ******************************************
 %nprocshared=40
 Will use up to   40 processors via shared memory.
 %mem=90gb
 %chk=hemi_opt_modified_3D_NICS.chk
 ------------------------------------------------------
 #p nmr=giao wb97x/aug-cc-pvdz nosymm geom=connectivity
 ------------------------------------------------------
 1/38=1,57=2,172=1/1;
 2/12=2,15=1,17=6,18=5,40=1/2;
 3/5=16,7=10,11=2,25=1,30=1,74=-57/1,2,3,8;
 4//1;
 5/5=2,38=5/2;
 8/6=1,10=90,11=11/1;
 10/13=100,31=1,45=16/2;
 6/7=2,8=2,9=2,10=2,28=1/1;
 99/9=1/99;
 Leave Link    1 at Wed Nov 19 22:11:35 2025, MaxMem= 12079595520 cpu:               4.7 elap:               0.2
 (Enter /local/gaussian-16.A03/g16/l101.exe)
 --------------------------
 File Created by py.Aroma 5
 --------------------------
 Symbolic Z-matrix:
 Charge =  0 Multiplicity = 1
 C                     2.42553  -0.50174  -0.07767 
 C                     2.30835   0.92315  -0.04318 
 C                     1.07503   1.52687   0. 
 N                     0.        0.71457   0. 
 B                     0.       -0.71457   0. 
 C                     1.35304  -1.37456  -0.06058 
 C                    -1.61838  -0.73178   0.10235 
 C                    -2.19363  -0.51817   1.49484 
 C                    -2.03917   0.81466   1.49893 
 C                    -1.46675   0.84033   0.09159 
 H                     3.44316  -0.90251  -0.1166 
 H                     3.20509   1.54061  -0.05525 
 H                     0.93347   2.60838   0.02139 
 H                     1.56199  -2.44498  -0.08931 
 H                    -2.24496  -1.22687  -0.64745 
 H                    -2.55076  -1.22474   2.2449 
 H                    -2.18306   1.59328   2.24676 
 H                    -1.9293    1.46604  -0.68012 
 Bq                    4.95      2.06     -2.18 
 Bq                    4.95      2.06     -2.08 
 Bq                    4.95      2.06     -1.98 
 Bq                    4.95      2.06     -1.88 
 Bq                    4.95      2.06     -1.78 
 Bq                    4.95      2.06     -1.68 
 Bq                    4.95      2.06     -1.58 
 Bq                    4.95      2.06     -1.48 
 Bq                    4.95      2.06     -1.38 
 Bq                    4.95      2.06     -1.28 
 Bq                    4.95      2.06     -1.18 
 Bq                    4.95      2.06     -1.08 
 Bq                    4.95      2.06     -0.98 
 Bq                    4.95      2.06     -0.88 
 Bq                    4.95      2.06     -0.78 
 Bq                    4.95      2.06     -0.68 
 Bq                    4.95      2.06     -0.58 
 Bq                    4.95      2.06     -0.48 
 Bq                    4.95      2.06     -0.38 
 Bq                    4.95      2.06     -0.28 
 Bq                    4.95      2.06     -0.18 
 Bq                    4.95      2.06     -0.08 
 Bq                    4.95      2.06      0.02 
 Bq                    4.95      2.06      0.12 
 Bq                    4.95      2.06      0.22 
 Bq                    4.95      2.06      0.32 
 Bq                    4.95      2.06      0.42 
 Bq                    4.95      2.06      0.52 
 Bq                    4.95      2.06      0.62 
 Bq                    4.95      2.06      0.72 
 Bq                    4.95      2.06      0.82 
 Bq                    4.95      2.06      0.92 
 Bq                    4.95      2.06      1.02 
 Bq                    4.95      2.06      1.12 
 Bq                    4.95      2.06      1.22 
 Bq                    4.95      2.06      1.32 
 Bq                    4.95      2.06      1.42 
 Bq                    4.95      2.06      1.52 
 Bq                    4.95      2.06      1.62 
 Bq                    4.95      2.06      1.72 
 Bq                    4.95      2.06      1.82 
 Bq                    4.95      2.06      1.92 
 Bq                    4.95      2.06      2.02 
 Bq                    4.95      2.06      2.12 
 Bq                    4.95      2.06      2.22 
 Bq                    4.95      2.06      2.32 
 Bq                    4.95      2.06      2.42 
 Bq                    4.95      2.06      2.52 
 Bq                    4.95      2.06      2.62 
 Bq                    4.95      2.06      2.72 
 Bq                    4.95      2.06      2.82 
 Bq                    4.95      2.06      2.92 
 Bq                    4.95      2.06      3.02 
 Bq                    4.95      2.06      3.12 
 Bq                    4.95      2.06      3.22 
 Bq                    4.95      2.06      3.32 
 Bq                    4.95      2.06      3.42 
 Bq                    4.95      2.06      3.52 
 Bq                    4.95      2.06      3.62 
 Bq                    4.95      2.06      3.72 
 Bq                    4.95      2.16     -2.18 
 Bq                    4.95      2.16     -2.08 
 Bq                    4.95      2.16     -1.98 
 Bq                    4.95      2.16     -1.88 
 Bq                    4.95      2.16     -1.78 
 Bq                    4.95      2.16     -1.68 
 Bq                    4.95      2.16     -1.58 
 Bq                    4.95      2.16     -1.48 
 Bq                    4.95      2.16     -1.38 
 Bq                    4.95      2.16     -1.28 
 Bq                    4.95      2.16     -1.18 
 Bq                    4.95      2.16     -1.08 
 Bq                    4.95      2.16     -0.98 
 Bq                    4.95      2.16     -0.88 
 Bq                    4.95      2.16     -0.78 
 Bq                    4.95      2.16     -0.68 
 Bq                    4.95      2.16     -0.58 
 Bq                    4.95      2.16     -0.48 
 Bq                    4.95      2.16     -0.38 
 Bq                    4.95      2.16     -0.28 
 Bq                    4.95      2.16     -0.18 
 Bq                    4.95      2.16     -0.08 
 Bq                    4.95      2.16      0.02 
 Bq                    4.95      2.16      0.12 
 Bq                    4.95      2.16      0.22 
 Bq                    4.95      2.16      0.32 
 Bq                    4.95      2.16      0.42 
 Bq                    4.95      2.16      0.52 
 Bq                    4.95      2.16      0.62 
 Bq                    4.95      2.16      0.72 
 Bq                    4.95      2.16      0.82 
 Bq                    4.95      2.16      0.92 
 Bq                    4.95      2.16      1.02 
 Bq                    4.95      2.16      1.12 
 Bq                    4.95      2.16      1.22 
 Bq                    4.95      2.16      1.32 
 Bq                    4.95      2.16      1.42 
 Bq                    4.95      2.16      1.52 
 Bq                    4.95      2.16      1.62 
 Bq                    4.95      2.16      1.72 
 Bq                    4.95      2.16      1.82 
 Bq                    4.95      2.16      1.92 
 Bq                    4.95      2.16      2.02 
 Bq                    4.95      2.16      2.12 
 Bq                    4.95      2.16      2.22 
 Bq                    4.95      2.16      2.32 
 Bq                    4.95      2.16      2.42 
 Bq                    4.95      2.16      2.52 
 Bq                    4.95      2.16      2.62 
 Bq                    4.95      2.16      2.72 
 Bq                    4.95      2.16      2.82 
 Bq                    4.95      2.16      2.92 
 Bq                    4.95      2.16      3.02 
 Bq                    4.95      2.16      3.12 
 Bq                    4.95      2.16      3.22 
 Bq                    4.95      2.16      3.32 
 Bq                    4.95      2.16      3.42 
 Bq                    4.95      2.16      3.52 
 Bq                    4.95      2.16      3.62 
 Bq                    4.95      2.16      3.72 
 Bq                    4.95      2.26     -2.18 
 Bq                    4.95      2.26     -2.08 
 Bq                    4.95      2.26     -1.98 
 Bq                    4.95      2.26     -1.88 
 Bq                    4.95      2.26     -1.78 
 Bq                    4.95      2.26     -1.68 
 Bq                    4.95      2.26     -1.58 
 Bq                    4.95      2.26     -1.48 
 Bq                    4.95      2.26     -1.38 
 Bq                    4.95      2.26     -1.28 
 Bq                    4.95      2.26     -1.18 
 Bq                    4.95      2.26     -1.08 
 Bq                    4.95      2.26     -0.98 
 Bq                    4.95      2.26     -0.88 
 Bq                    4.95      2.26     -0.78 
 Bq                    4.95      2.26     -0.68 
 Bq                    4.95      2.26     -0.58 
 Bq                    4.95      2.26     -0.48 
 Bq                    4.95      2.26     -0.38 
 Bq                    4.95      2.26     -0.28 
 Bq                    4.95      2.26     -0.18 
 Bq                    4.95      2.26     -0.08 
 Bq                    4.95      2.26      0.02 
 Bq                    4.95      2.26      0.12 
 Bq                    4.95      2.26      0.22 
 Bq                    4.95      2.26      0.32 
 Bq                    4.95      2.26      0.42 
 Bq                    4.95      2.26      0.52 
 Bq                    4.95      2.26      0.62 
 Bq                    4.95      2.26      0.72 
 Bq                    4.95      2.26      0.82 
 Bq                    4.95      2.26      0.92 
 Bq                    4.95      2.26      1.02 
 Bq                    4.95      2.26      1.12 
 Bq                    4.95      2.26      1.22 
 Bq                    4.95      2.26      1.32 
 Bq                    4.95      2.26      1.42 
 Bq                    4.95      2.26      1.52 
 Bq                    4.95      2.26      1.62 
 Bq                    4.95      2.26      1.72 
 Bq                    4.95      2.26      1.82 
 Bq                    4.95      2.26      1.92 
 Bq                    4.95      2.26      2.02 
 Bq                    4.95      2.26      2.12 
 Bq                    4.95      2.26      2.22 
 Bq                    4.95      2.26      2.32 
 Bq                    4.95      2.26      2.42 
 Bq                    4.95      2.26      2.52 
 Bq                    4.95      2.26      2.62 
 Bq                    4.95      2.26      2.72 
 Bq                    4.95      2.26      2.82 
 Bq                    4.95      2.26      2.92 
 Bq                    4.95      2.26      3.02 
 Bq                    4.95      2.26      3.12 
 Bq                    4.95      2.26      3.22 
 Bq                    4.95      2.26      3.32 
 Bq                    4.95      2.26      3.42 
 Bq                    4.95      2.26      3.52 
 Bq                    4.95      2.26      3.62 
 Bq                    4.95      2.26      3.72 
 Bq                    4.95      2.36     -2.18 
 Bq                    4.95      2.36     -2.08 
 Bq                    4.95      2.36     -1.98 
 Bq                    4.95      2.36     -1.88 
 Bq                    4.95      2.36     -1.78 
 Bq                    4.95      2.36     -1.68 
 Bq                    4.95      2.36     -1.58 
 Bq                    4.95      2.36     -1.48 
 Bq                    4.95      2.36     -1.38 
 Bq                    4.95      2.36     -1.28 
 Bq                    4.95      2.36     -1.18 
 Bq                    4.95      2.36     -1.08 
 Bq                    4.95      2.36     -0.98 
 Bq                    4.95      2.36     -0.88 
 Bq                    4.95      2.36     -0.78 
 Bq                    4.95      2.36     -0.68 
 Bq                    4.95      2.36     -0.58 
 Bq                    4.95      2.36     -0.48 
 Bq                    4.95      2.36     -0.38 
 Bq                    4.95      2.36     -0.28 
 Bq                    4.95      2.36     -0.18 
 Bq                    4.95      2.36     -0.08 
 Bq                    4.95      2.36      0.02 
 Bq                    4.95      2.36      0.12 
 Bq                    4.95      2.36      0.22 
 Bq                    4.95      2.36      0.32 
 Bq                    4.95      2.36      0.42 
 Bq                    4.95      2.36      0.52 
 Bq                    4.95      2.36      0.62 
 Bq                    4.95      2.36      0.72 
 Bq                    4.95      2.36      0.82 
 Bq                    4.95      2.36      0.92 
 Bq                    4.95      2.36      1.02 
 Bq                    4.95      2.36      1.12 
 Bq                    4.95      2.36      1.22 
 Bq                    4.95      2.36      1.32 
 Bq                    4.95      2.36      1.42 
 Bq                    4.95      2.36      1.52 
 Bq                    4.95      2.36      1.62 
 Bq                    4.95      2.36      1.72 
 Bq                    4.95      2.36      1.82 
 Bq                    4.95      2.36      1.92 
 Bq                    4.95      2.36      2.02 
 Bq                    4.95      2.36      2.12 
 Bq                    4.95      2.36      2.22 
 Bq                    4.95      2.36      2.32 
 Bq                    4.95      2.36      2.42 
 Bq                    4.95      2.36      2.52 
 Bq                    4.95      2.36      2.62 
 Bq                    4.95      2.36      2.72 
 Bq                    4.95      2.36      2.82 
 Bq                    4.95      2.36      2.92 
 Bq                    4.95      2.36      3.02 
 Bq                    4.95      2.36      3.12 
 Bq                    4.95      2.36      3.22 
 Bq                    4.95      2.36      3.32 
 Bq                    4.95      2.36      3.42 
 Bq                    4.95      2.36      3.52 
 Bq                    4.95      2.36      3.62 
 Bq                    4.95      2.36      3.72 
 Bq                    4.95      2.46     -2.18 
 Bq                    4.95      2.46     -2.08 
 Bq                    4.95      2.46     -1.98 
 Bq                    4.95      2.46     -1.88 
 Bq                    4.95      2.46     -1.78 
 Bq                    4.95      2.46     -1.68 
 Bq                    4.95      2.46     -1.58 
 Bq                    4.95      2.46     -1.48 
 Bq                    4.95      2.46     -1.38 
 Bq                    4.95      2.46     -1.28 
 Bq                    4.95      2.46     -1.18 
 Bq                    4.95      2.46     -1.08 
 Bq                    4.95      2.46     -0.98 
 Bq                    4.95      2.46     -0.88 
 Bq                    4.95      2.46     -0.78 
 Bq                    4.95      2.46     -0.68 
 Bq                    4.95      2.46     -0.58 
 Bq                    4.95      2.46     -0.48 
 Bq                    4.95      2.46     -0.38 
 Bq                    4.95      2.46     -0.28 
 Bq                    4.95      2.46     -0.18 
 Bq                    4.95      2.46     -0.08 
 Bq                    4.95      2.46      0.02 
 Bq                    4.95      2.46      0.12 
 Bq                    4.95      2.46      0.22 
 Bq                    4.95      2.46      0.32 
 Bq                    4.95      2.46      0.42 
 Bq                    4.95      2.46      0.52 
 Bq                    4.95      2.46      0.62 
 Bq                    4.95      2.46      0.72 
 Bq                    4.95      2.46      0.82 
 Bq                    4.95      2.46      0.92 
 Bq                    4.95      2.46      1.02 
 Bq                    4.95      2.46      1.12 
 Bq                    4.95      2.46      1.22 
 Bq                    4.95      2.46      1.32 
 Bq                    4.95      2.46      1.42 
 Bq                    4.95      2.46      1.52 
 Bq                    4.95      2.46      1.62 
 Bq                    4.95      2.46      1.72 
 Bq                    4.95      2.46      1.82 
 Bq                    4.95      2.46      1.92 
 Bq                    4.95      2.46      2.02 
 Bq                    4.95      2.46      2.12 
 Bq                    4.95      2.46      2.22 
 Bq                    4.95      2.46      2.32 
 Bq                    4.95      2.46      2.42 
 Bq                    4.95      2.46      2.52 
 Bq                    4.95      2.46      2.62 
 Bq                    4.95      2.46      2.72 
 Bq                    4.95      2.46      2.82 
 Bq                    4.95      2.46      2.92 
 Bq                    4.95      2.46      3.02 
 Bq                    4.95      2.46      3.12 
 Bq                    4.95      2.46      3.22 
 Bq                    4.95      2.46      3.32 
 Bq                    4.95      2.46      3.42 
 Bq                    4.95      2.46      3.52 
 Bq                    4.95      2.46      3.62 
 Bq                    4.95      2.46      3.72 
 Bq                    4.95      2.56     -2.18 
 Bq                    4.95      2.56     -2.08 
 Bq                    4.95      2.56     -1.98 
 Bq                    4.95      2.56     -1.88 
 Bq                    4.95      2.56     -1.78 
 Bq                    4.95      2.56     -1.68 
 Bq                    4.95      2.56     -1.58 
 Bq                    4.95      2.56     -1.48 
 Bq                    4.95      2.56     -1.38 
 Bq                    4.95      2.56     -1.28 
 Bq                    4.95      2.56     -1.18 
 Bq                    4.95      2.56     -1.08 
 Bq                    4.95      2.56     -0.98 
 Bq                    4.95      2.56     -0.88 
 Bq                    4.95      2.56     -0.78 
 Bq                    4.95      2.56     -0.68 
 Bq                    4.95      2.56     -0.58 
 Bq                    4.95      2.56     -0.48 
 Bq                    4.95      2.56     -0.38 
 Bq                    4.95      2.56     -0.28 
 Bq                    4.95      2.56     -0.18 
 Bq                    4.95      2.56     -0.08 
 Bq                    4.95      2.56      0.02 
 Bq                    4.95      2.56      0.12 
 Bq                    4.95      2.56      0.22 
 Bq                    4.95      2.56      0.32 
 Bq                    4.95      2.56      0.42 
 Bq                    4.95      2.56      0.52 
 Bq                    4.95      2.56      0.62 
 Bq                    4.95      2.56      0.72 
 Bq                    4.95      2.56      0.82 
 Bq                    4.95      2.56      0.92 
 Bq                    4.95      2.56      1.02 
 Bq                    4.95      2.56      1.12 
 Bq                    4.95      2.56      1.22 
 Bq                    4.95      2.56      1.32 
 Bq                    4.95      2.56      1.42 
 Bq                    4.95      2.56      1.52 
 Bq                    4.95      2.56      1.62 
 Bq                    4.95      2.56      1.72 
 Bq                    4.95      2.56      1.82 
 Bq                    4.95      2.56      1.92 
 Bq                    4.95      2.56      2.02 
 Bq                    4.95      2.56      2.12 
 Bq                    4.95      2.56      2.22 
 Bq                    4.95      2.56      2.32 
 Bq                    4.95      2.56      2.42 
 Bq                    4.95      2.56      2.52 
 Bq                    4.95      2.56      2.62 
 Bq                    4.95      2.56      2.72 
 Bq                    4.95      2.56      2.82 
 Bq                    4.95      2.56      2.92 
 Bq                    4.95      2.56      3.02 
 Bq                    4.95      2.56      3.12 
 Bq                    4.95      2.56      3.22 
 Bq                    4.95      2.56      3.32 
 Bq                    4.95      2.56      3.42 
 Bq                    4.95      2.56      3.52 
 Bq                    4.95      2.56      3.62 
 Bq                    4.95      2.56      3.72 
 Bq                    4.95      2.66     -2.18 
 Bq                    4.95      2.66     -2.08 
 Bq                    4.95      2.66     -1.98 
 Bq                    4.95      2.66     -1.88 
 Bq                    4.95      2.66     -1.78 
 Bq                    4.95      2.66     -1.68 
 Bq                    4.95      2.66     -1.58 
 Bq                    4.95      2.66     -1.48 
 Bq                    4.95      2.66     -1.38 
 Bq                    4.95      2.66     -1.28 
 Bq                    4.95      2.66     -1.18 
 Bq                    4.95      2.66     -1.08 
 Bq                    4.95      2.66     -0.98 
 Bq                    4.95      2.66     -0.88 
 Bq                    4.95      2.66     -0.78 
 Bq                    4.95      2.66     -0.68 
 Bq                    4.95      2.66     -0.58 
 Bq                    4.95      2.66     -0.48 
 Bq                    4.95      2.66     -0.38 
 Bq                    4.95      2.66     -0.28 
 Bq                    4.95      2.66     -0.18 
 Bq                    4.95      2.66     -0.08 
 Bq                    4.95      2.66      0.02 
 Bq                    4.95      2.66      0.12 
 Bq                    4.95      2.66      0.22 
 Bq                    4.95      2.66      0.32 
 Bq                    4.95      2.66      0.42 
 Bq                    4.95      2.66      0.52 
 Bq                    4.95      2.66      0.62 
 Bq                    4.95      2.66      0.72 
 Bq                    4.95      2.66      0.82 
 Bq                    4.95      2.66      0.92 
 Bq                    4.95      2.66      1.02 
 Bq                    4.95      2.66      1.12 
 Bq                    4.95      2.66      1.22 
 Bq                    4.95      2.66      1.32 
 Bq                    4.95      2.66      1.42 
 Bq                    4.95      2.66      1.52 
 Bq                    4.95      2.66      1.62 
 Bq                    4.95      2.66      1.72 
 Bq                    4.95      2.66      1.82 
 Bq                    4.95      2.66      1.92 
 Bq                    4.95      2.66      2.02 
 Bq                    4.95      2.66      2.12 
 Bq                    4.95      2.66      2.22 
 Bq                    4.95      2.66      2.32 
 Bq                    4.95      2.66      2.42 
 Bq                    4.95      2.66      2.52 
 Bq                    4.95      2.66      2.62 
 Bq                    4.95      2.66      2.72 
 Bq                    4.95      2.66      2.82 
 Bq                    4.95      2.66      2.92 
 Bq                    4.95      2.66      3.02 
 Bq                    4.95      2.66      3.12 
 Bq                    4.95      2.66      3.22 
 Bq                    4.95      2.66      3.32 
 Bq                    4.95      2.66      3.42 
 Bq                    4.95      2.66      3.52 
 Bq                    4.95      2.66      3.62 
 Bq                    4.95      2.66      3.72 
 Bq                    4.95      2.76     -2.18 
 Bq                    4.95      2.76     -2.08 
 Bq                    4.95      2.76     -1.98 
 Bq                    4.95      2.76     -1.88 
 Bq                    4.95      2.76     -1.78 
 Bq                    4.95      2.76     -1.68 
 Bq                    4.95      2.76     -1.58 
 Bq                    4.95      2.76     -1.48 
 Bq                    4.95      2.76     -1.38 
 Bq                    4.95      2.76     -1.28 
 Bq                    4.95      2.76     -1.18 
 Bq                    4.95      2.76     -1.08 
 Bq                    4.95      2.76     -0.98 
 Bq                    4.95      2.76     -0.88 
 Bq                    4.95      2.76     -0.78 
 Bq                    4.95      2.76     -0.68 
 Bq                    4.95      2.76     -0.58 
 Bq                    4.95      2.76     -0.48 
 Bq                    4.95      2.76     -0.38 
 Bq                    4.95      2.76     -0.28 
 Bq                    4.95      2.76     -0.18 
 Bq                    4.95      2.76     -0.08 
 Bq                    4.95      2.76      0.02 
 Bq                    4.95      2.76      0.12 
 Bq                    4.95      2.76      0.22 
 Bq                    4.95      2.76      0.32 
 Bq                    4.95      2.76      0.42 
 Bq                    4.95      2.76      0.52 
 Bq                    4.95      2.76      0.62 
 Bq                    4.95      2.76      0.72 
 Bq                    4.95      2.76      0.82 
 Bq                    4.95      2.76      0.92 
 Bq                    4.95      2.76      1.02 
 Bq                    4.95      2.76      1.12 
 Bq                    4.95      2.76      1.22 
 Bq                    4.95      2.76      1.32 
 Bq                    4.95      2.76      1.42 
 Bq                    4.95      2.76      1.52 
 Bq                    4.95      2.76      1.62 
 Bq                    4.95      2.76      1.72 
 Bq                    4.95      2.76      1.82 
 Bq                    4.95      2.76      1.92 
 Bq                    4.95      2.76      2.02 
 Bq                    4.95      2.76      2.12 
 Bq                    4.95      2.76      2.22 
 Bq                    4.95      2.76      2.32 
 Bq                    4.95      2.76      2.42 
 Bq                    4.95      2.76      2.52 
 Bq                    4.95      2.76      2.62 
 Bq                    4.95      2.76      2.72 
 Bq                    4.95      2.76      2.82 
 Bq                    4.95      2.76      2.92 
 Bq                    4.95      2.76      3.02 
 Bq                    4.95      2.76      3.12 
 Bq                    4.95      2.76      3.22 
 Bq                    4.95      2.76      3.32 
 Bq                    4.95      2.76      3.42 
 Bq                    4.95      2.76      3.52 
 Bq                    4.95      2.76      3.62 
 Bq                    4.95      2.76      3.72 
 Bq                    4.95      2.86     -2.18 
 Bq                    4.95      2.86     -2.08 
 Bq                    4.95      2.86     -1.98 
 Bq                    4.95      2.86     -1.88 
 Bq                    4.95      2.86     -1.78 
 Bq                    4.95      2.86     -1.68 
 Bq                    4.95      2.86     -1.58 
 Bq                    4.95      2.86     -1.48 
 Bq                    4.95      2.86     -1.38 
 Bq                    4.95      2.86     -1.28 
 Bq                    4.95      2.86     -1.18 
 Bq                    4.95      2.86     -1.08 
 Bq                    4.95      2.86     -0.98 
 Bq                    4.95      2.86     -0.88 
 Bq                    4.95      2.86     -0.78 
 Bq                    4.95      2.86     -0.68 
 Bq                    4.95      2.86     -0.58 
 Bq                    4.95      2.86     -0.48 
 Bq                    4.95      2.86     -0.38 
 Bq                    4.95      2.86     -0.28 
 Bq                    4.95      2.86     -0.18 
 Bq                    4.95      2.86     -0.08 
 Bq                    4.95      2.86      0.02 
 Bq                    4.95      2.86      0.12 
 Bq                    4.95      2.86      0.22 
 Bq                    4.95      2.86      0.32 
 Bq                    4.95      2.86      0.42 
 Bq                    4.95      2.86      0.52 
 Bq                    4.95      2.86      0.62 
 Bq                    4.95      2.86      0.72 
 Bq                    4.95      2.86      0.82 
 Bq                    4.95      2.86      0.92 
 Bq                    4.95      2.86      1.02 
 Bq                    4.95      2.86      1.12 
 Bq                    4.95      2.86      1.22 
 Bq                    4.95      2.86      1.32 
 Bq                    4.95      2.86      1.42 
 Bq                    4.95      2.86      1.52 
 Bq                    4.95      2.86      1.62 
 Bq                    4.95      2.86      1.72 
 Bq                    4.95      2.86      1.82 
 Bq                    4.95      2.86      1.92 
 Bq                    4.95      2.86      2.02 
 Bq                    4.95      2.86      2.12 
 Bq                    4.95      2.86      2.22 
 Bq                    4.95      2.86      2.32 
 Bq                    4.95      2.86      2.42 
 Bq                    4.95      2.86      2.52 
 Bq                    4.95      2.86      2.62 
 Bq                    4.95      2.86      2.72 
 Bq                    4.95      2.86      2.82 
 Bq                    4.95      2.86      2.92 
 Bq                    4.95      2.86      3.02 
 Bq                    4.95      2.86      3.12 
 Bq                    4.95      2.86      3.22 
 Bq                    4.95      2.86      3.32 
 Bq                    4.95      2.86      3.42 
 Bq                    4.95      2.86      3.52 
 Bq                    4.95      2.86      3.62 
 Bq                    4.95      2.86      3.72 
 Bq                    4.95      2.96     -2.18 
 Bq                    4.95      2.96     -2.08 
 Bq                    4.95      2.96     -1.98 
 Bq                    4.95      2.96     -1.88 
 Bq                    4.95      2.96     -1.78 
 Bq                    4.95      2.96     -1.68 
 Bq                    4.95      2.96     -1.58 
 Bq                    4.95      2.96     -1.48 
 Bq                    4.95      2.96     -1.38 
 Bq                    4.95      2.96     -1.28 
 Bq                    4.95      2.96     -1.18 
 Bq                    4.95      2.96     -1.08 
 Bq                    4.95      2.96     -0.98 
 Bq                    4.95      2.96     -0.88 
 Bq                    4.95      2.96     -0.78 
 Bq                    4.95      2.96     -0.68 
 Bq                    4.95      2.96     -0.58 
 Bq                    4.95      2.96     -0.48 
 Bq                    4.95      2.96     -0.38 
 Bq                    4.95      2.96     -0.28 
 Bq                    4.95      2.96     -0.18 
 Bq                    4.95      2.96     -0.08 
 Bq                    4.95      2.96      0.02 
 Bq                    4.95      2.96      0.12 
 Bq                    4.95      2.96      0.22 
 Bq                    4.95      2.96      0.32 
 Bq                    4.95      2.96      0.42 
 Bq                    4.95      2.96      0.52 
 Bq                    4.95      2.96      0.62 
 Bq                    4.95      2.96      0.72 
 Bq                    4.95      2.96      0.82 
 Bq                    4.95      2.96      0.92 
 Bq                    4.95      2.96      1.02 
 Bq                    4.95      2.96      1.12 
 Bq                    4.95      2.96      1.22 
 Bq                    4.95      2.96      1.32 
 Bq                    4.95      2.96      1.42 
 Bq                    4.95      2.96      1.52 
 Bq                    4.95      2.96      1.62 
 Bq                    4.95      2.96      1.72 
 Bq                    4.95      2.96      1.82 
 Bq                    4.95      2.96      1.92 
 Bq                    4.95      2.96      2.02 
 Bq                    4.95      2.96      2.12 
 Bq                    4.95      2.96      2.22 
 Bq                    4.95      2.96      2.32 
 Bq                    4.95      2.96      2.42 
 Bq                    4.95      2.96      2.52 
 Bq                    4.95      2.96      2.62 
 Bq                    4.95      2.96      2.72 
 Bq                    4.95      2.96      2.82 
 Bq                    4.95      2.96      2.92 
 Bq                    4.95      2.96      3.02 
 Bq                    4.95      2.96      3.12 
 Bq                    4.95      2.96      3.22 
 Bq                    4.95      2.96      3.32 
 Bq                    4.95      2.96      3.42 
 Bq                    4.95      2.96      3.52 
 Bq                    4.95      2.96      3.62 
 Bq                    4.95      2.96      3.72 
 Bq                    4.95      3.06     -2.18 
 Bq                    4.95      3.06     -2.08 
 Bq                    4.95      3.06     -1.98 
 Bq                    4.95      3.06     -1.88 
 Bq                    4.95      3.06     -1.78 
 Bq                    4.95      3.06     -1.68 
 Bq                    4.95      3.06     -1.58 
 Bq                    4.95      3.06     -1.48 
 Bq                    4.95      3.06     -1.38 
 Bq                    4.95      3.06     -1.28 
 Bq                    4.95      3.06     -1.18 
 Bq                    4.95      3.06     -1.08 
 Bq                    4.95      3.06     -0.98 
 Bq                    4.95      3.06     -0.88 
 Bq                    4.95      3.06     -0.78 
 Bq                    4.95      3.06     -0.68 
 Bq                    4.95      3.06     -0.58 
 Bq                    4.95      3.06     -0.48 
 Bq                    4.95      3.06     -0.38 
 Bq                    4.95      3.06     -0.28 
 Bq                    4.95      3.06     -0.18 
 Bq                    4.95      3.06     -0.08 
 Bq                    4.95      3.06      0.02 
 Bq                    4.95      3.06      0.12 
 Bq                    4.95      3.06      0.22 
 Bq                    4.95      3.06      0.32 
 Bq                    4.95      3.06      0.42 
 Bq                    4.95      3.06      0.52 
 Bq                    4.95      3.06      0.62 
 Bq                    4.95      3.06      0.72 
 Bq                    4.95      3.06      0.82 
 Bq                    4.95      3.06      0.92 
 Bq                    4.95      3.06      1.02 
 Bq                    4.95      3.06      1.12 
 Bq                    4.95      3.06      1.22 
 Bq                    4.95      3.06      1.32 
 Bq                    4.95      3.06      1.42 
 Bq                    4.95      3.06      1.52 
 Bq                    4.95      3.06      1.62 
 Bq                    4.95      3.06      1.72 
 Bq                    4.95      3.06      1.82 
 Bq                    4.95      3.06      1.92 
 Bq                    4.95      3.06      2.02 
 Bq                    4.95      3.06      2.12 
 Bq                    4.95      3.06      2.22 
 Bq                    4.95      3.06      2.32 
 Bq                    4.95      3.06      2.42 
 Bq                    4.95      3.06      2.52 
 Bq                    4.95      3.06      2.62 
 Bq                    4.95      3.06      2.72 
 Bq                    4.95      3.06      2.82 
 Bq                    4.95      3.06      2.92 
 Bq                    4.95      3.06      3.02 
 Bq                    4.95      3.06      3.12 
 Bq                    4.95      3.06      3.22 
 Bq                    4.95      3.06      3.32 
 Bq                    4.95      3.06      3.42 
 Bq                    4.95      3.06      3.52 
 Bq                    4.95      3.06      3.62 
 Bq                    4.95      3.06      3.72 
 Bq                    4.95      3.16     -2.18 
 Bq                    4.95      3.16     -2.08 
 Bq                    4.95      3.16     -1.98 
 Bq                    4.95      3.16     -1.88 
 Bq                    4.95      3.16     -1.78 
 Bq                    4.95      3.16     -1.68 
 Bq                    4.95      3.16     -1.58 
 Bq                    4.95      3.16     -1.48 
 Bq                    4.95      3.16     -1.38 
 Bq                    4.95      3.16     -1.28 
 Bq                    4.95      3.16     -1.18 
 Bq                    4.95      3.16     -1.08 
 Bq                    4.95      3.16     -0.98 
 Bq                    4.95      3.16     -0.88 
 Bq                    4.95      3.16     -0.78 
 Bq                    4.95      3.16     -0.68 
 Bq                    4.95      3.16     -0.58 
 Bq                    4.95      3.16     -0.48 
 Bq                    4.95      3.16     -0.38 
 Bq                    4.95      3.16     -0.28 
 Bq                    4.95      3.16     -0.18 
 Bq                    4.95      3.16     -0.08 
 Bq                    4.95      3.16      0.02 
 Bq                    4.95      3.16      0.12 
 Bq                    4.95      3.16      0.22 
 Bq                    4.95      3.16      0.32 
 Bq                    4.95      3.16      0.42 
 Bq                    4.95      3.16      0.52 
 Bq                    4.95      3.16      0.62 
 Bq                    4.95      3.16      0.72 
 Bq                    4.95      3.16      0.82 
 Bq                    4.95      3.16      0.92 
 Bq                    4.95      3.16      1.02 
 Bq                    4.95      3.16      1.12 
 Bq                    4.95      3.16      1.22 
 Bq                    4.95      3.16      1.32 
 Bq                    4.95      3.16      1.42 
 Bq                    4.95      3.16      1.52 
 Bq                    4.95      3.16      1.62 
 Bq                    4.95      3.16      1.72 
 Bq                    4.95      3.16      1.82 
 Bq                    4.95      3.16      1.92 
 Bq                    4.95      3.16      2.02 
 Bq                    4.95      3.16      2.12 
 Bq                    4.95      3.16      2.22 
 Bq                    4.95      3.16      2.32 
 Bq                    4.95      3.16      2.42 
 Bq                    4.95      3.16      2.52 
 Bq                    4.95      3.16      2.62 
 Bq                    4.95      3.16      2.72 
 Bq                    4.95      3.16      2.82 
 Bq                    4.95      3.16      2.92 
 Bq                    4.95      3.16      3.02 
 Bq                    4.95      3.16      3.12 
 Bq                    4.95      3.16      3.22 
 Bq                    4.95      3.16      3.32 
 Bq                    4.95      3.16      3.42 
 Bq                    4.95      3.16      3.52 
 Bq                    4.95      3.16      3.62 
 Bq                    4.95      3.16      3.72 
 Bq                    4.95      3.26     -2.18 
 Bq                    4.95      3.26     -2.08 
 Bq                    4.95      3.26     -1.98 
 Bq                    4.95      3.26     -1.88 
 Bq                    4.95      3.26     -1.78 
 Bq                    4.95      3.26     -1.68 
 Bq                    4.95      3.26     -1.58 
 Bq                    4.95      3.26     -1.48 
 Bq                    4.95      3.26     -1.38 
 Bq                    4.95      3.26     -1.28 
 Bq                    4.95      3.26     -1.18 
 Bq                    4.95      3.26     -1.08 
 Bq                    4.95      3.26     -0.98 
 Bq                    4.95      3.26     -0.88 
 Bq                    4.95      3.26     -0.78 
 Bq                    4.95      3.26     -0.68 
 Bq                    4.95      3.26     -0.58 
 Bq                    4.95      3.26     -0.48 
 Bq                    4.95      3.26     -0.38 
 Bq                    4.95      3.26     -0.28 
 Bq                    4.95      3.26     -0.18 
 Bq                    4.95      3.26     -0.08 
 Bq                    4.95      3.26      0.02 
 Bq                    4.95      3.26      0.12 
 Bq                    4.95      3.26      0.22 
 Bq                    4.95      3.26      0.32 
 Bq                    4.95      3.26      0.42 
 Bq                    4.95      3.26      0.52 
 Bq                    4.95      3.26      0.62 
 Bq                    4.95      3.26      0.72 
 Bq                    4.95      3.26      0.82 
 Bq                    4.95      3.26      0.92 
 Bq                    4.95      3.26      1.02 
 Bq                    4.95      3.26      1.12 
 Bq                    4.95      3.26      1.22 
 Bq                    4.95      3.26      1.32 
 Bq                    4.95      3.26      1.42 
 Bq                    4.95      3.26      1.52 
 Bq                    4.95      3.26      1.62 
 Bq                    4.95      3.26      1.72 
 Bq                    4.95      3.26      1.82 
 Bq                    4.95      3.26      1.92 
 Bq                    4.95      3.26      2.02 
 Bq                    4.95      3.26      2.12 
 Bq                    4.95      3.26      2.22 
 Bq                    4.95      3.26      2.32 
 Bq                    4.95      3.26      2.42 
 Bq                    4.95      3.26      2.52 
 Bq                    4.95      3.26      2.62 
 Bq                    4.95      3.26      2.72 
 Bq                    4.95      3.26      2.82 
 Bq                    4.95      3.26      2.92 
 Bq                    4.95      3.26      3.02 
 Bq                    4.95      3.26      3.12 
 Bq                    4.95      3.26      3.22 
 Bq                    4.95      3.26      3.32 
 Bq                    4.95      3.26      3.42 
 Bq                    4.95      3.26      3.52 
 Bq                    4.95      3.26      3.62 
 Bq                    4.95      3.26      3.72 
 Bq                    4.95      3.36     -2.18 
 Bq                    4.95      3.36     -2.08 
 Bq                    4.95      3.36     -1.98 
 Bq                    4.95      3.36     -1.88 
 Bq                    4.95      3.36     -1.78 
 Bq                    4.95      3.36     -1.68 
 Bq                    4.95      3.36     -1.58 
 Bq                    4.95      3.36     -1.48 
 Bq                    4.95      3.36     -1.38 
 Bq                    4.95      3.36     -1.28 
 Bq                    4.95      3.36     -1.18 
 Bq                    4.95      3.36     -1.08 
 Bq                    4.95      3.36     -0.98 
 Bq                    4.95      3.36     -0.88 
 Bq                    4.95      3.36     -0.78 
 Bq                    4.95      3.36     -0.68 
 Bq                    4.95      3.36     -0.58 
 Bq                    4.95      3.36     -0.48 
 Bq                    4.95      3.36     -0.38 
 Bq                    4.95      3.36     -0.28 
 Bq                    4.95      3.36     -0.18 
 Bq                    4.95      3.36     -0.08 
 Bq                    4.95      3.36      0.02 
 Bq                    4.95      3.36      0.12 
 Bq                    4.95      3.36      0.22 
 Bq                    4.95      3.36      0.32 
 Bq                    4.95      3.36      0.42 
 Bq                    4.95      3.36      0.52 
 Bq                    4.95      3.36      0.62 
 Bq                    4.95      3.36      0.72 
 Bq                    4.95      3.36      0.82 
 Bq                    4.95      3.36      0.92 
 Bq                    4.95      3.36      1.02 
 Bq                    4.95      3.36      1.12 
 Bq                    4.95      3.36      1.22 
 Bq                    4.95      3.36      1.32 
 Bq                    4.95      3.36      1.42 
 Bq                    4.95      3.36      1.52 
 Bq                    4.95      3.36      1.62 
 Bq                    4.95      3.36      1.72 
 Bq                    4.95      3.36      1.82 
 Bq                    4.95      3.36      1.92 
 Bq                    4.95      3.36      2.02 
 Bq                    4.95      3.36      2.12 
 Bq                    4.95      3.36      2.22 
 Bq                    4.95      3.36      2.32 
 Bq                    4.95      3.36      2.42 
 Bq                    4.95      3.36      2.52 
 Bq                    4.95      3.36      2.62 
 Bq                    4.95      3.36      2.72 
 Bq                    4.95      3.36      2.82 
 Bq                    4.95      3.36      2.92 
 Bq                    4.95      3.36      3.02 
 Bq                    4.95      3.36      3.12 
 Bq                    4.95      3.36      3.22 
 Bq                    4.95      3.36      3.32 
 Bq                    4.95      3.36      3.42 
 Bq                    4.95      3.36      3.52 
 Bq                    4.95      3.36      3.62 
 Bq                    4.95      3.36      3.72 
 Bq                    4.95      3.46     -2.18 
 Bq                    4.95      3.46     -2.08 
 Bq                    4.95      3.46     -1.98 
 Bq                    4.95      3.46     -1.88 
 Bq                    4.95      3.46     -1.78 
 Bq                    4.95      3.46     -1.68 
 Bq                    4.95      3.46     -1.58 
 Bq                    4.95      3.46     -1.48 
 Bq                    4.95      3.46     -1.38 
 Bq                    4.95      3.46     -1.28 
 Bq                    4.95      3.46     -1.18 
 Bq                    4.95      3.46     -1.08 
 Bq                    4.95      3.46     -0.98 
 Bq                    4.95      3.46     -0.88 
 Bq                    4.95      3.46     -0.78 
 Bq                    4.95      3.46     -0.68 
 Bq                    4.95      3.46     -0.58 
 Bq                    4.95      3.46     -0.48 
 Bq                    4.95      3.46     -0.38 
 Bq                    4.95      3.46     -0.28 
 Bq                    4.95      3.46     -0.18 
 Bq                    4.95      3.46     -0.08 
 Bq                    4.95      3.46      0.02 
 Bq                    4.95      3.46      0.12 
 Bq                    4.95      3.46      0.22 
 Bq                    4.95      3.46      0.32 
 Bq                    4.95      3.46      0.42 
 Bq                    4.95      3.46      0.52 
 Bq                    4.95      3.46      0.62 
 Bq                    4.95      3.46      0.72 
 Bq                    4.95      3.46      0.82 
 Bq                    4.95      3.46      0.92 
 Bq                    4.95      3.46      1.02 
 Bq                    4.95      3.46      1.12 
 Bq                    4.95      3.46      1.22 
 Bq                    4.95      3.46      1.32 
 Bq                    4.95      3.46      1.42 
 Bq                    4.95      3.46      1.52 
 Bq                    4.95      3.46      1.62 
 Bq                    4.95      3.46      1.72 
 Bq                    4.95      3.46      1.82 
 Bq                    4.95      3.46      1.92 
 Bq                    4.95      3.46      2.02 
 Bq                    4.95      3.46      2.12 
 Bq                    4.95      3.46      2.22 
 Bq                    4.95      3.46      2.32 
 Bq                    4.95      3.46      2.42 
 Bq                    4.95      3.46      2.52 
 Bq                    4.95      3.46      2.62 
 Bq                    4.95      3.46      2.72 
 Bq                    4.95      3.46      2.82 
 Bq                    4.95      3.46      2.92 
 Bq                    4.95      3.46      3.02 
 Bq                    4.95      3.46      3.12 
 Bq                    4.95      3.46      3.22 
 Bq                    4.95      3.46      3.32 
 Bq                    4.95      3.46      3.42 
 Bq                    4.95      3.46      3.52 
 Bq                    4.95      3.46      3.62 
 Bq                    4.95      3.46      3.72 
 Bq                    4.95      3.56     -2.18 
 Bq                    4.95      3.56     -2.08 
 Bq                    4.95      3.56     -1.98 
 Bq                    4.95      3.56     -1.88 
 Bq                    4.95      3.56     -1.78 
 Bq                    4.95      3.56     -1.68 
 Bq                    4.95      3.56     -1.58 
 Bq                    4.95      3.56     -1.48 
 Bq                    4.95      3.56     -1.38 
 Bq                    4.95      3.56     -1.28 
 Bq                    4.95      3.56     -1.18 
 Bq                    4.95      3.56     -1.08 
 Bq                    4.95      3.56     -0.98 
 Bq                    4.95      3.56     -0.88 
 Bq                    4.95      3.56     -0.78 
 Bq                    4.95      3.56     -0.68 
 Bq                    4.95      3.56     -0.58 
 Bq                    4.95      3.56     -0.48 
 Bq                    4.95      3.56     -0.38 
 Bq                    4.95      3.56     -0.28 
 Bq                    4.95      3.56     -0.18 
 Bq                    4.95      3.56     -0.08 
 Bq                    4.95      3.56      0.02 
 Bq                    4.95      3.56      0.12 
 Bq                    4.95      3.56      0.22 
 Bq                    4.95      3.56      0.32 
 Bq                    4.95      3.56      0.42 
 Bq                    4.95      3.56      0.52 
 Bq                    4.95      3.56      0.62 
 Bq                    4.95      3.56      0.72 
 Bq                    4.95      3.56      0.82 
 Bq                    4.95      3.56      0.92 
 Bq                    4.95      3.56      1.02 
 Bq                    4.95      3.56      1.12 
 Bq                    4.95      3.56      1.22 
 Bq                    4.95      3.56      1.32 
 Bq                    4.95      3.56      1.42 
 Bq                    4.95      3.56      1.52 
 Bq                    4.95      3.56      1.62 
 Bq                    4.95      3.56      1.72 
 Bq                    4.95      3.56      1.82 
 Bq                    4.95      3.56      1.92 
 Bq                    4.95      3.56      2.02 
 Bq                    4.95      3.56      2.12 
 Bq                    4.95      3.56      2.22 
 Bq                    4.95      3.56      2.32 
 Bq                    4.95      3.56      2.42 
 Bq                    4.95      3.56      2.52 
 Bq                    4.95      3.56      2.62 
 Bq                    4.95      3.56      2.72 
 Bq                    4.95      3.56      2.82 
 Bq                    4.95      3.56      2.92 
 Bq                    4.95      3.56      3.02 
 Bq                    4.95      3.56      3.12 
 Bq                    4.95      3.56      3.22 
 Bq                    4.95      3.56      3.32 
 Bq                    4.95      3.56      3.42 
 Bq                    4.95      3.56      3.52 
 Bq                    4.95      3.56      3.62 
 Bq                    4.95      3.56      3.72 
 Bq                    4.95      3.66     -2.18 
 Bq                    4.95      3.66     -2.08 
 Bq                    4.95      3.66     -1.98 
 Bq                    4.95      3.66     -1.88 
 Bq                    4.95      3.66     -1.78 
 Bq                    4.95      3.66     -1.68 
 Bq                    4.95      3.66     -1.58 
 Bq                    4.95      3.66     -1.48 
 Bq                    4.95      3.66     -1.38 
 Bq                    4.95      3.66     -1.28 
 Bq                    4.95      3.66     -1.18 
 Bq                    4.95      3.66     -1.08 
 Bq                    4.95      3.66     -0.98 
 Bq                    4.95      3.66     -0.88 
 Bq                    4.95      3.66     -0.78 
 Bq                    4.95      3.66     -0.68 
 Bq                    4.95      3.66     -0.58 
 Bq                    4.95      3.66     -0.48 
 Bq                    4.95      3.66     -0.38 
 Bq                    4.95      3.66     -0.28 
 Bq                    4.95      3.66     -0.18 
 Bq                    4.95      3.66     -0.08 
 Bq                    4.95      3.66      0.02 
 Bq                    4.95      3.66      0.12 
 Bq                    4.95      3.66      0.22 
 Bq                    4.95      3.66      0.32 
 Bq                    4.95      3.66      0.42 
 Bq                    4.95      3.66      0.52 
 Bq                    4.95      3.66      0.62 
 Bq                    4.95      3.66      0.72 
 Bq                    4.95      3.66      0.82 
 Bq                    4.95      3.66      0.92 
 Bq                    4.95      3.66      1.02 
 Bq                    4.95      3.66      1.12 
 Bq                    4.95      3.66      1.22 
 Bq                    4.95      3.66      1.32 
 Bq                    4.95      3.66      1.42 
 Bq                    4.95      3.66      1.52 
 Bq                    4.95      3.66      1.62 
 Bq                    4.95      3.66      1.72 
 Bq                    4.95      3.66      1.82 
 Bq                    4.95      3.66      1.92 
 Bq                    4.95      3.66      2.02 
 Bq                    4.95      3.66      2.12 
 Bq                    4.95      3.66      2.22 
 Bq                    4.95      3.66      2.32 
 Bq                    4.95      3.66      2.42 
 Bq                    4.95      3.66      2.52 
 Bq                    4.95      3.66      2.62 
 Bq                    4.95      3.66      2.72 
 Bq                    4.95      3.66      2.82 
 Bq                    4.95      3.66      2.92 
 Bq                    4.95      3.66      3.02 
 Bq                    4.95      3.66      3.12 
 Bq                    4.95      3.66      3.22 
 Bq                    4.95      3.66      3.32 
 Bq                    4.95      3.66      3.42 
 Bq                    4.95      3.66      3.52 
 Bq                    4.95      3.66      3.62 
 Bq                    4.95      3.66      3.72 
 Bq                    4.95      3.76     -2.18 
 Bq                    4.95      3.76     -2.08 
 Bq                    4.95      3.76     -1.98 
 Bq                    4.95      3.76     -1.88 
 Bq                    4.95      3.76     -1.78 
 Bq                    4.95      3.76     -1.68 
 Bq                    4.95      3.76     -1.58 
 Bq                    4.95      3.76     -1.48 
 Bq                    4.95      3.76     -1.38 
 Bq                    4.95      3.76     -1.28 
 Bq                    4.95      3.76     -1.18 
 Bq                    4.95      3.76     -1.08 
 Bq                    4.95      3.76     -0.98 
 Bq                    4.95      3.76     -0.88 
 Bq                    4.95      3.76     -0.78 
 Bq                    4.95      3.76     -0.68 
 Bq                    4.95      3.76     -0.58 
 Bq                    4.95      3.76     -0.48 
 Bq                    4.95      3.76     -0.38 
 Bq                    4.95      3.76     -0.28 
 Bq                    4.95      3.76     -0.18 
 Bq                    4.95      3.76     -0.08 
 Bq                    4.95      3.76      0.02 
 Bq                    4.95      3.76      0.12 
 Bq                    4.95      3.76      0.22 
 Bq                    4.95      3.76      0.32 
 Bq                    4.95      3.76      0.42 
 Bq                    4.95      3.76      0.52 
 Bq                    4.95      3.76      0.62 
 Bq                    4.95      3.76      0.72 
 Bq                    4.95      3.76      0.82 
 Bq                    4.95      3.76      0.92 
 Bq                    4.95      3.76      1.02 
 Bq                    4.95      3.76      1.12 
 Bq                    4.95      3.76      1.22 
 Bq                    4.95      3.76      1.32 
 Bq                    4.95      3.76      1.42 
 Bq                    4.95      3.76      1.52 
 Bq                    4.95      3.76      1.62 
 Bq                    4.95      3.76      1.72 
 Bq                    4.95      3.76      1.82 
 Bq                    4.95      3.76      1.92 
 Bq                    4.95      3.76      2.02 
 Bq                    4.95      3.76      2.12 
 Bq                    4.95      3.76      2.22 
 Bq                    4.95      3.76      2.32 
 Bq                    4.95      3.76      2.42 
 Bq                    4.95      3.76      2.52 
 Bq                    4.95      3.76      2.62 
 Bq                    4.95      3.76      2.72 
 Bq                    4.95      3.76      2.82 
 Bq                    4.95      3.76      2.92 
 Bq                    4.95      3.76      3.02 
 Bq                    4.95      3.76      3.12 
 Bq                    4.95      3.76      3.22 
 Bq                    4.95      3.76      3.32 
 Bq                    4.95      3.76      3.42 
 Bq                    4.95      3.76      3.52 
 Bq                    4.95      3.76      3.62 
 Bq                    4.95      3.76      3.72 
 Bq                    4.95      3.86     -2.18 
 Bq                    4.95      3.86     -2.08 
 Bq                    4.95      3.86     -1.98 
 Bq                    4.95      3.86     -1.88 
 Bq                    4.95      3.86     -1.78 
 Bq                    4.95      3.86     -1.68 
 Bq                    4.95      3.86     -1.58 
 Bq                    4.95      3.86     -1.48 
 Bq                    4.95      3.86     -1.38 
 Bq                    4.95      3.86     -1.28 
 Bq                    4.95      3.86     -1.18 
 Bq                    4.95      3.86     -1.08 
 Bq                    4.95      3.86     -0.98 
 Bq                    4.95      3.86     -0.88 
 Bq                    4.95      3.86     -0.78 
 Bq                    4.95      3.86     -0.68 
 Bq                    4.95      3.86     -0.58 
 Bq                    4.95      3.86     -0.48 
 Bq                    4.95      3.86     -0.38 
 Bq                    4.95      3.86     -0.28 
 Bq                    4.95      3.86     -0.18 
 Bq                    4.95      3.86     -0.08 
 Bq                    4.95      3.86      0.02 
 Bq                    4.95      3.86      0.12 
 Bq                    4.95      3.86      0.22 
 Bq                    4.95      3.86      0.32 
 Bq                    4.95      3.86      0.42 
 Bq                    4.95      3.86      0.52 
 Bq                    4.95      3.86      0.62 
 Bq                    4.95      3.86      0.72 
 Bq                    4.95      3.86      0.82 
 Bq                    4.95      3.86      0.92 
 Bq                    4.95      3.86      1.02 
 Bq                    4.95      3.86      1.12 
 Bq                    4.95      3.86      1.22 
 Bq                    4.95      3.86      1.32 
 Bq                    4.95      3.86      1.42 
 Bq                    4.95      3.86      1.52 
 Bq                    4.95      3.86      1.62 
 Bq                    4.95      3.86      1.72 
 Bq                    4.95      3.86      1.82 
 Bq                    4.95      3.86      1.92 
 Bq                    4.95      3.86      2.02 
 Bq                    4.95      3.86      2.12 
 Bq                    4.95      3.86      2.22 
 Bq                    4.95      3.86      2.32 
 Bq                    4.95      3.86      2.42 
 Bq                    4.95      3.86      2.52 
 Bq                    4.95      3.86      2.62 
 Bq                    4.95      3.86      2.72 
 Bq                    4.95      3.86      2.82 
 Bq                    4.95      3.86      2.92 
 Bq                    4.95      3.86      3.02 
 Bq                    4.95      3.86      3.12 
 Bq                    4.95      3.86      3.22 
 Bq                    4.95      3.86      3.32 
 Bq                    4.95      3.86      3.42 
 Bq                    4.95      3.86      3.52 
 Bq                    4.95      3.86      3.62 
 Bq                    4.95      3.86      3.72 
 Bq                    4.95      3.96     -2.18 
 Bq                    4.95      3.96     -2.08 
 Bq                    4.95      3.96     -1.98 
 Bq                    4.95      3.96     -1.88 
 Bq                    4.95      3.96     -1.78 
 Bq                    4.95      3.96     -1.68 
 Bq                    4.95      3.96     -1.58 
 Bq                    4.95      3.96     -1.48 
 Bq                    4.95      3.96     -1.38 
 Bq                    4.95      3.96     -1.28 
 Bq                    4.95      3.96     -1.18 
 Bq                    4.95      3.96     -1.08 
 Bq                    4.95      3.96     -0.98 
 Bq                    4.95      3.96     -0.88 
 Bq                    4.95      3.96     -0.78 
 Bq                    4.95      3.96     -0.68 
 Bq                    4.95      3.96     -0.58 
 Bq                    4.95      3.96     -0.48 
 Bq                    4.95      3.96     -0.38 
 Bq                    4.95      3.96     -0.28 
 Bq                    4.95      3.96     -0.18 
 Bq                    4.95      3.96     -0.08 
 Bq                    4.95      3.96      0.02 
 Bq                    4.95      3.96      0.12 
 Bq                    4.95      3.96      0.22 
 Bq                    4.95      3.96      0.32 
 Bq                    4.95      3.96      0.42 
 Bq                    4.95      3.96      0.52 
 Bq                    4.95      3.96      0.62 
 Bq                    4.95      3.96      0.72 
 Bq                    4.95      3.96      0.82 
 Bq                    4.95      3.96      0.92 
 Bq                    4.95      3.96      1.02 
 Bq                    4.95      3.96      1.12 
 Bq                    4.95      3.96      1.22 
 Bq                    4.95      3.96      1.32 
 Bq                    4.95      3.96      1.42 
 Bq                    4.95      3.96      1.52 
 Bq                    4.95      3.96      1.62 
 Bq                    4.95      3.96      1.72 
 Bq                    4.95      3.96      1.82 
 Bq                    4.95      3.96      1.92 
 Bq                    4.95      3.96      2.02 
 Bq                    4.95      3.96      2.12 
 Bq                    4.95      3.96      2.22 
 Bq                    4.95      3.96      2.32 
 Bq                    4.95      3.96      2.42 
 Bq                    4.95      3.96      2.52 
 Bq                    4.95      3.96      2.62 
 Bq                    4.95      3.96      2.72 
 Bq                    4.95      3.96      2.82 
 Bq                    4.95      3.96      2.92 
 Bq                    4.95      3.96      3.02 
 Bq                    4.95      3.96      3.12 
 Bq                    4.95      3.96      3.22 
 Bq                    4.95      3.96      3.32 
 Bq                    4.95      3.96      3.42 
 Bq                    4.95      3.96      3.52 
 Bq                    4.95      3.96      3.62 
 Bq                    4.95      3.96      3.72 
 Bq                    4.95      4.06     -2.18 
 Bq                    4.95      4.06     -2.08 
 Bq                    4.95      4.06     -1.98 
 Bq                    4.95      4.06     -1.88 
 Bq                    4.95      4.06     -1.78 
 Bq                    4.95      4.06     -1.68 
 Bq                    4.95      4.06     -1.58 
 Bq                    4.95      4.06     -1.48 
 Bq                    4.95      4.06     -1.38 
 Bq                    4.95      4.06     -1.28 
 Bq                    4.95      4.06     -1.18 
 Bq                    4.95      4.06     -1.08 
 Bq                    4.95      4.06     -0.98 
 Bq                    4.95      4.06     -0.88 
 Bq                    4.95      4.06     -0.78 
 Bq                    4.95      4.06     -0.68 
 Bq                    4.95      4.06     -0.58 
 Bq                    4.95      4.06     -0.48 
 Bq                    4.95      4.06     -0.38 
 Bq                    4.95      4.06     -0.28 
 Bq                    4.95      4.06     -0.18 
 Bq                    4.95      4.06     -0.08 
 Bq                    4.95      4.06      0.02 
 Bq                    4.95      4.06      0.12 
 Bq                    4.95      4.06      0.22 
 Bq                    4.95      4.06      0.32 
 Bq                    4.95      4.06      0.42 
 Bq                    4.95      4.06      0.52 
 Bq                    4.95      4.06      0.62 
 Bq                    4.95      4.06      0.72 
 Bq                    4.95      4.06      0.82 
 Bq                    4.95      4.06      0.92 
 Bq                    4.95      4.06      1.02 
 Bq                    4.95      4.06      1.12 
 Bq                    4.95      4.06      1.22 
 Bq                    4.95      4.06      1.32 
 Bq                    4.95      4.06      1.42 
 Bq                    4.95      4.06      1.52 
 Bq                    4.95      4.06      1.62 
 Bq                    4.95      4.06      1.72 
 Bq                    4.95      4.06      1.82 
 Bq                    4.95      4.06      1.92 
 Bq                    4.95      4.06      2.02 
 Bq                    4.95      4.06      2.12 
 Bq                    4.95      4.06      2.22 
 Bq                    4.95      4.06      2.32 
 Bq                    4.95      4.06      2.42 
 Bq                    4.95      4.06      2.52 
 Bq                    4.95      4.06      2.62 
 Bq                    4.95      4.06      2.72 
 Bq                    4.95      4.06      2.82 
 Bq                    4.95      4.06      2.92 
 Bq                    4.95      4.06      3.02 
 Bq                    4.95      4.06      3.12 
 Bq                    4.95      4.06      3.22 
 Bq                    4.95      4.06      3.32 
 Bq                    4.95      4.06      3.42 
 Bq                    4.95      4.06      3.52 
 Bq                    4.95      4.06      3.62 
 Bq                    4.95      4.06      3.72 
 
 ITRead=  0  0  0  0  0  0  0  0  0  0  0  0  0  0  0  0  0  0  0  0
 ITRead=  0  0  0  0  0  0  0  0  0  0  0  0  0  0  0  0  0  0  0  0
 ITRead=  0  0  0  0  0  0  0  0  0  0  0  0  0  0  0  0  0  0  0  0
 ITRead=  0  0  0  0  0  0  0  0  0  0  0  0  0  0  0  0  0  0  0  0
 ITRead=  0  0  0  0  0  0  0  0  0  0  0  0  0  0  0  0  0  0  0  0
 ITRead=  0  0  0  0  0  0  0  0  0  0  0  0  0  0  0  0  0  0  0  0
 ITRead=  0  0  0  0  0  0  0  0  0  0  0  0  0  0  0  0  0  0  0  0
 ITRead=  0  0  0  0  0  0  0  0  0  0  0  0  0  0  0  0  0  0  0  0
 ITRead=  0  0  0  0  0  0  0  0  0  0  0  0  0  0  0  0  0  0  0  0
 ITRead=  0  0  0  0  0  0  0  0  0  0  0  0  0  0  0  0  0  0  0  0
 ITRead=  0  0  0  0  0  0  0  0  0  0  0  0  0  0  0  0  0  0  0  0
 ITRead=  0  0  0  0  0  0  0  0  0  0  0  0  0  0  0  0  0  0  0  0
 ITRead=  0  0  0  0  0  0  0  0  0  0  0  0  0  0  0  0  0  0  0  0
 ITRead=  0  0  0  0  0  0  0  0  0  0  0  0  0  0  0  0  0  0  0  0
 ITRead=  0  0  0  0  0  0  0  0  0  0  0  0  0  0  0  0  0  0  0  0
 ITRead=  0  0  0  0  0  0  0  0  0  0  0  0  0  0  0  0  0  0  0  0
 ITRead=  0  0  0  0  0  0  0  0  0  0  0  0  0  0  0  0  0  0  0  0
 ITRead=  0  0  0  0  0  0  0  0  0  0  0  0  0  0  0  0  0  0  0  0
 ITRead=  0  0  0  0  0  0  0  0  0  0  0  0  0  0  0  0  0  0  0  0
 ITRead=  0  0  0  0  0  0  0  0  0  0  0  0  0  0  0  0  0  0  0  0
 ITRead=  0  0  0  0  0  0  0  0  0  0  0  0  0  0  0  0  0  0  0  0
 ITRead=  0  0  0  0  0  0  0  0  0  0  0  0  0  0  0  0  0  0  0  0
 ITRead=  0  0  0  0  0  0  0  0  0  0  0  0  0  0  0  0  0  0  0  0
 ITRead=  0  0  0  0  0  0  0  0  0  0  0  0  0  0  0  0  0  0  0  0
 ITRead=  0  0  0  0  0  0  0  0  0  0  0  0  0  0  0  0  0  0  0  0
 ITRead=  0  0  0  0  0  0  0  0  0  0  0  0  0  0  0  0  0  0  0  0
 ITRead=  0  0  0  0  0  0  0  0  0  0  0  0  0  0  0  0  0  0  0  0
 ITRead=  0  0  0  0  0  0  0  0  0  0  0  0  0  0  0  0  0  0  0  0
 ITRead=  0  0  0  0  0  0  0  0  0  0  0  0  0  0  0  0  0  0  0  0
 ITRead=  0  0  0  0  0  0  0  0  0  0  0  0  0  0  0  0  0  0  0  0
 ITRead=  0  0  0  0  0  0  0  0  0  0  0  0  0  0  0  0  0  0  0  0
 ITRead=  0  0  0  0  0  0  0  0  0  0  0  0  0  0  0  0  0  0  0  0
 ITRead=  0  0  0  0  0  0  0  0  0  0  0  0  0  0  0  0  0  0  0  0
 ITRead=  0  0  0  0  0  0  0  0  0  0  0  0  0  0  0  0  0  0  0  0
 ITRead=  0  0  0  0  0  0  0  0  0  0  0  0  0  0  0  0  0  0  0  0
 ITRead=  0  0  0  0  0  0  0  0  0  0  0  0  0  0  0  0  0  0  0  0
 ITRead=  0  0  0  0  0  0  0  0  0  0  0  0  0  0  0  0  0  0  0  0
 ITRead=  0  0  0  0  0  0  0  0  0  0  0  0  0  0  0  0  0  0  0  0
 ITRead=  0  0  0  0  0  0  0  0  0  0  0  0  0  0  0  0  0  0  0  0
 ITRead=  0  0  0  0  0  0  0  0  0  0  0  0  0  0  0  0  0  0  0  0
 ITRead=  0  0  0  0  0  0  0  0  0  0  0  0  0  0  0  0  0  0  0  0
 ITRead=  0  0  0  0  0  0  0  0  0  0  0  0  0  0  0  0  0  0  0  0
 ITRead=  0  0  0  0  0  0  0  0  0  0  0  0  0  0  0  0  0  0  0  0
 ITRead=  0  0  0  0  0  0  0  0  0  0  0  0  0  0  0  0  0  0  0  0
 ITRead=  0  0  0  0  0  0  0  0  0  0  0  0  0  0  0  0  0  0  0  0
 ITRead=  0  0  0  0  0  0  0  0  0  0  0  0  0  0  0  0  0  0  0  0
 ITRead=  0  0  0  0  0  0  0  0  0  0  0  0  0  0  0  0  0  0  0  0
 ITRead=  0  0  0  0  0  0  0  0  0  0  0  0  0  0  0  0  0  0  0  0
 ITRead=  0  0  0  0  0  0  0  0  0  0  0  0  0  0  0  0  0  0  0  0
 ITRead=  0  0  0  0  0  0  0  0  0  0  0  0  0  0  0  0  0  0  0  0
 ITRead=  0  0  0  0  0  0  0  0  0  0  0  0  0  0  0  0  0  0  0  0
 ITRead=  0  0  0  0  0  0  0  0  0  0  0  0  0  0  0  0  0  0  0  0
 ITRead=  0  0  0  0  0  0  0  0  0  0  0  0  0  0  0  0  0  0  0  0
 ITRead=  0  0  0  0  0  0  0  0  0  0  0  0  0  0  0  0  0  0  0  0
 ITRead=  0  0  0  0  0  0  0  0  0  0  0  0  0  0  0  0  0  0  0  0
 ITRead=  0  0  0  0  0  0  0  0  0  0  0  0  0  0  0  0  0  0  0  0
 ITRead=  0  0  0  0  0  0  0  0  0  0  0  0  0  0  0  0  0  0  0  0
 ITRead=  0  0  0  0  0  0  0  0  0  0  0  0  0  0  0  0  0  0  0  0
 ITRead=  0  0  0  0  0  0  0  0  0  0  0  0  0  0  0  0  0  0  0  0
 ITRead=  0  0  0  0  0  0  0  0  0  0  0  0  0  0  0  0  0  0  0  0
 ITRead=  0  0  0  0  0  0  0  0  0  0  0  0  0  0  0  0  0  0  0  0
 ITRead=  0  0  0  0  0  0  0  0  0  0  0  0  0  0  0  0  0  0  0  0
 ITRead=  0  0  0  0  0  0  0  0  0  0  0  0  0  0  0  0  0  0  0  0
 ITRead=  0  0  0  0  0  0  0  0  0  0  0  0  0  0  0  0  0  0
 MicOpt= -1 -1 -1 -1 -1 -1 -1 -1 -1 -1 -1 -1 -1 -1 -1 -1 -1 -1 -1 -1
 MicOpt= -1 -1 -1 -1 -1 -1 -1 -1 -1 -1 -1 -1 -1 -1 -1 -1 -1 -1 -1 -1
 MicOpt= -1 -1 -1 -1 -1 -1 -1 -1 -1 -1 -1 -1 -1 -1 -1 -1 -1 -1 -1 -1
 MicOpt= -1 -1 -1 -1 -1 -1 -1 -1 -1 -1 -1 -1 -1 -1 -1 -1 -1 -1 -1 -1
 MicOpt= -1 -1 -1 -1 -1 -1 -1 -1 -1 -1 -1 -1 -1 -1 -1 -1 -1 -1 -1 -1
 MicOpt= -1 -1 -1 -1 -1 -1 -1 -1 -1 -1 -1 -1 -1 -1 -1 -1 -1 -1 -1 -1
 MicOpt= -1 -1 -1 -1 -1 -1 -1 -1 -1 -1 -1 -1 -1 -1 -1 -1 -1 -1 -1 -1
 MicOpt= -1 -1 -1 -1 -1 -1 -1 -1 -1 -1 -1 -1 -1 -1 -1 -1 -1 -1 -1 -1
 MicOpt= -1 -1 -1 -1 -1 -1 -1 -1 -1 -1 -1 -1 -1 -1 -1 -1 -1 -1 -1 -1
 MicOpt= -1 -1 -1 -1 -1 -1 -1 -1 -1 -1 -1 -1 -1 -1 -1 -1 -1 -1 -1 -1
 MicOpt= -1 -1 -1 -1 -1 -1 -1 -1 -1 -1 -1 -1 -1 -1 -1 -1 -1 -1 -1 -1
 MicOpt= -1 -1 -1 -1 -1 -1 -1 -1 -1 -1 -1 -1 -1 -1 -1 -1 -1 -1 -1 -1
 MicOpt= -1 -1 -1 -1 -1 -1 -1 -1 -1 -1 -1 -1 -1 -1 -1 -1 -1 -1 -1 -1
 MicOpt= -1 -1 -1 -1 -1 -1 -1 -1 -1 -1 -1 -1 -1 -1 -1 -1 -1 -1 -1 -1
 MicOpt= -1 -1 -1 -1 -1 -1 -1 -1 -1 -1 -1 -1 -1 -1 -1 -1 -1 -1 -1 -1
 MicOpt= -1 -1 -1 -1 -1 -1 -1 -1 -1 -1 -1 -1 -1 -1 -1 -1 -1 -1 -1 -1
 MicOpt= -1 -1 -1 -1 -1 -1 -1 -1 -1 -1 -1 -1 -1 -1 -1 -1 -1 -1 -1 -1
 MicOpt= -1 -1 -1 -1 -1 -1 -1 -1 -1 -1 -1 -1 -1 -1 -1 -1 -1 -1 -1 -1
 MicOpt= -1 -1 -1 -1 -1 -1 -1 -1 -1 -1 -1 -1 -1 -1 -1 -1 -1 -1 -1 -1
 MicOpt= -1 -1 -1 -1 -1 -1 -1 -1 -1 -1 -1 -1 -1 -1 -1 -1 -1 -1 -1 -1
 MicOpt= -1 -1 -1 -1 -1 -1 -1 -1 -1 -1 -1 -1 -1 -1 -1 -1 -1 -1 -1 -1
 MicOpt= -1 -1 -1 -1 -1 -1 -1 -1 -1 -1 -1 -1 -1 -1 -1 -1 -1 -1 -1 -1
 MicOpt= -1 -1 -1 -1 -1 -1 -1 -1 -1 -1 -1 -1 -1 -1 -1 -1 -1 -1 -1 -1
 MicOpt= -1 -1 -1 -1 -1 -1 -1 -1 -1 -1 -1 -1 -1 -1 -1 -1 -1 -1 -1 -1
 MicOpt= -1 -1 -1 -1 -1 -1 -1 -1 -1 -1 -1 -1 -1 -1 -1 -1 -1 -1 -1 -1
 MicOpt= -1 -1 -1 -1 -1 -1 -1 -1 -1 -1 -1 -1 -1 -1 -1 -1 -1 -1 -1 -1
 MicOpt= -1 -1 -1 -1 -1 -1 -1 -1 -1 -1 -1 -1 -1 -1 -1 -1 -1 -1 -1 -1
 MicOpt= -1 -1 -1 -1 -1 -1 -1 -1 -1 -1 -1 -1 -1 -1 -1 -1 -1 -1 -1 -1
 MicOpt= -1 -1 -1 -1 -1 -1 -1 -1 -1 -1 -1 -1 -1 -1 -1 -1 -1 -1 -1 -1
 MicOpt= -1 -1 -1 -1 -1 -1 -1 -1 -1 -1 -1 -1 -1 -1 -1 -1 -1 -1 -1 -1
 MicOpt= -1 -1 -1 -1 -1 -1 -1 -1 -1 -1 -1 -1 -1 -1 -1 -1 -1 -1 -1 -1
 MicOpt= -1 -1 -1 -1 -1 -1 -1 -1 -1 -1 -1 -1 -1 -1 -1 -1 -1 -1 -1 -1
 MicOpt= -1 -1 -1 -1 -1 -1 -1 -1 -1 -1 -1 -1 -1 -1 -1 -1 -1 -1 -1 -1
 MicOpt= -1 -1 -1 -1 -1 -1 -1 -1 -1 -1 -1 -1 -1 -1 -1 -1 -1 -1 -1 -1
 MicOpt= -1 -1 -1 -1 -1 -1 -1 -1 -1 -1 -1 -1 -1 -1 -1 -1 -1 -1 -1 -1
 MicOpt= -1 -1 -1 -1 -1 -1 -1 -1 -1 -1 -1 -1 -1 -1 -1 -1 -1 -1 -1 -1
 MicOpt= -1 -1 -1 -1 -1 -1 -1 -1 -1 -1 -1 -1 -1 -1 -1 -1 -1 -1 -1 -1
 MicOpt= -1 -1 -1 -1 -1 -1 -1 -1 -1 -1 -1 -1 -1 -1 -1 -1 -1 -1 -1 -1
 MicOpt= -1 -1 -1 -1 -1 -1 -1 -1 -1 -1 -1 -1 -1 -1 -1 -1 -1 -1 -1 -1
 MicOpt= -1 -1 -1 -1 -1 -1 -1 -1 -1 -1 -1 -1 -1 -1 -1 -1 -1 -1 -1 -1
 MicOpt= -1 -1 -1 -1 -1 -1 -1 -1 -1 -1 -1 -1 -1 -1 -1 -1 -1 -1 -1 -1
 MicOpt= -1 -1 -1 -1 -1 -1 -1 -1 -1 -1 -1 -1 -1 -1 -1 -1 -1 -1 -1 -1
 MicOpt= -1 -1 -1 -1 -1 -1 -1 -1 -1 -1 -1 -1 -1 -1 -1 -1 -1 -1 -1 -1
 MicOpt= -1 -1 -1 -1 -1 -1 -1 -1 -1 -1 -1 -1 -1 -1 -1 -1 -1 -1 -1 -1
 MicOpt= -1 -1 -1 -1 -1 -1 -1 -1 -1 -1 -1 -1 -1 -1 -1 -1 -1 -1 -1 -1
 MicOpt= -1 -1 -1 -1 -1 -1 -1 -1 -1 -1 -1 -1 -1 -1 -1 -1 -1 -1 -1 -1
 MicOpt= -1 -1 -1 -1 -1 -1 -1 -1 -1 -1 -1 -1 -1 -1 -1 -1 -1 -1 -1 -1
 MicOpt= -1 -1 -1 -1 -1 -1 -1 -1 -1 -1 -1 -1 -1 -1 -1 -1 -1 -1 -1 -1
 MicOpt= -1 -1 -1 -1 -1 -1 -1 -1 -1 -1 -1 -1 -1 -1 -1 -1 -1 -1 -1 -1
 MicOpt= -1 -1 -1 -1 -1 -1 -1 -1 -1 -1 -1 -1 -1 -1 -1 -1 -1 -1 -1 -1
 MicOpt= -1 -1 -1 -1 -1 -1 -1 -1 -1 -1 -1 -1 -1 -1 -1 -1 -1 -1 -1 -1
 MicOpt= -1 -1 -1 -1 -1 -1 -1 -1 -1 -1 -1 -1 -1 -1 -1 -1 -1 -1 -1 -1
 MicOpt= -1 -1 -1 -1 -1 -1 -1 -1 -1 -1 -1 -1 -1 -1 -1 -1 -1 -1 -1 -1
 MicOpt= -1 -1 -1 -1 -1 -1 -1 -1 -1 -1 -1 -1 -1 -1 -1 -1 -1 -1 -1 -1
 MicOpt= -1 -1 -1 -1 -1 -1 -1 -1 -1 -1 -1 -1 -1 -1 -1 -1 -1 -1 -1 -1
 MicOpt= -1 -1 -1 -1 -1 -1 -1 -1 -1 -1 -1 -1 -1 -1 -1 -1 -1 -1 -1 -1
 MicOpt= -1 -1 -1 -1 -1 -1 -1 -1 -1 -1 -1 -1 -1 -1 -1 -1 -1 -1 -1 -1
 MicOpt= -1 -1 -1 -1 -1 -1 -1 -1 -1 -1 -1 -1 -1 -1 -1 -1 -1 -1 -1 -1
 MicOpt= -1 -1 -1 -1 -1 -1 -1 -1 -1 -1 -1 -1 -1 -1 -1 -1 -1 -1 -1 -1
 MicOpt= -1 -1 -1 -1 -1 -1 -1 -1 -1 -1 -1 -1 -1 -1 -1 -1 -1 -1 -1 -1
 MicOpt= -1 -1 -1 -1 -1 -1 -1 -1 -1 -1 -1 -1 -1 -1 -1 -1 -1 -1 -1 -1
 MicOpt= -1 -1 -1 -1 -1 -1 -1 -1 -1 -1 -1 -1 -1 -1 -1 -1 -1 -1 -1 -1
 MicOpt= -1 -1 -1 -1 -1 -1 -1 -1 -1 -1 -1 -1 -1 -1 -1 -1 -1 -1 -1 -1
 MicOpt= -1 -1 -1 -1 -1 -1 -1 -1 -1 -1 -1 -1 -1 -1 -1 -1 -1 -1
 NAtoms=   1278 NQM=     1278 NQMF=       0 NMMI=      0 NMMIF=      0
                NMic=       0 NMicF=      0.
                    Isotopes and Nuclear Properties:
 (Nuclear quadrupole moments (NQMom) in fm**2, nuclear magnetic moments (NMagM)
  in nuclear magnetons)

  Atom         1           2           3           4           5           6           7           8           9          10
 IAtWgt=          12          12          12          14          11          12          12          12          12          12
 AtmWgt=  12.0000000  12.0000000  12.0000000  14.0030740  11.0093053  12.0000000  12.0000000  12.0000000  12.0000000  12.0000000
 NucSpn=           0           0           0           2           3           0           0           0           0           0
 AtZEff=  -0.0000000  -0.0000000  -0.0000000  -0.0000000  -0.0000000  -0.0000000  -0.0000000  -0.0000000  -0.0000000  -0.0000000
 NQMom=    0.0000000   0.0000000   0.0000000   2.0440000   4.0590000   0.0000000   0.0000000   0.0000000   0.0000000   0.0000000
 NMagM=    0.0000000   0.0000000   0.0000000   0.4037610   2.6886370   0.0000000   0.0000000   0.0000000   0.0000000   0.0000000
 AtZNuc=   6.0000000   6.0000000   6.0000000   7.0000000   5.0000000   6.0000000   6.0000000   6.0000000   6.0000000   6.0000000

  Atom        11          12          13          14          15          16          17          18          19          20
 IAtWgt=           1           1           1           1           1           1           1           1           0           0
 AtmWgt=   1.0078250   1.0078250   1.0078250   1.0078250   1.0078250   1.0078250   1.0078250   1.0078250   0.0000000   0.0000000
 NucSpn=           1           1           1           1           1           1           1           1           0           0
 AtZEff=  -0.0000000  -0.0000000  -0.0000000  -0.0000000  -0.0000000  -0.0000000  -0.0000000  -0.0000000  -0.0000000  -0.0000000
 NQMom=    0.0000000   0.0000000   0.0000000   0.0000000   0.0000000   0.0000000   0.0000000   0.0000000   0.0000000   0.0000000
 NMagM=    2.7928460   2.7928460   2.7928460   2.7928460   2.7928460   2.7928460   2.7928460   2.7928460   0.0000000   0.0000000
 AtZNuc=   1.0000000   1.0000000   1.0000000   1.0000000   1.0000000   1.0000000   1.0000000   1.0000000   0.0000000   0.0000000

  Atom        21          22          23          24          25          26          27          28          29          30
 IAtWgt=           0           0           0           0           0           0           0           0           0           0
 AtmWgt=   0.0000000   0.0000000   0.0000000   0.0000000   0.0000000   0.0000000   0.0000000   0.0000000   0.0000000   0.0000000
 NucSpn=           0           0           0           0           0           0           0           0           0           0
 AtZEff=  -0.0000000  -0.0000000  -0.0000000  -0.0000000  -0.0000000  -0.0000000  -0.0000000  -0.0000000  -0.0000000  -0.0000000
 NQMom=    0.0000000   0.0000000   0.0000000   0.0000000   0.0000000   0.0000000   0.0000000   0.0000000   0.0000000   0.0000000
 NMagM=    0.0000000   0.0000000   0.0000000   0.0000000   0.0000000   0.0000000   0.0000000   0.0000000   0.0000000   0.0000000
 AtZNuc=   0.0000000   0.0000000   0.0000000   0.0000000   0.0000000   0.0000000   0.0000000   0.0000000   0.0000000   0.0000000

  Atom        31          32          33          34          35          36          37          38          39          40
 IAtWgt=           0           0           0           0           0           0           0           0           0           0
 AtmWgt=   0.0000000   0.0000000   0.0000000   0.0000000   0.0000000   0.0000000   0.0000000   0.0000000   0.0000000   0.0000000
[...]
 .56,1.02\Bq,0,4.95,2.56,1.12\Bq,0,4.95,2.56,1.22\Bq,0,4.95,2.56,1.32\B
 q,0,4.95,2.56,1.42\Bq,0,4.95,2.56,1.52\Bq,0,4.95,2.56,1.62\Bq,0,4.95,2
 .56,1.72\Bq,0,4.95,2.56,1.82\Bq,0,4.95,2.56,1.92\Bq,0,4.95,2.56,2.02\B
 q,0,4.95,2.56,2.12\Bq,0,4.95,2.56,2.22\Bq,0,4.95,2.56,2.32\Bq,0,4.95,2
 .56,2.42\Bq,0,4.95,2.56,2.52\Bq,0,4.95,2.56,2.62\Bq,0,4.95,2.56,2.72\B
 q,0,4.95,2.56,2.82\Bq,0,4.95,2.56,2.92\Bq,0,4.95,2.56,3.02\Bq,0,4.95,2
 .56,3.12\Bq,0,4.95,2.56,3.22\Bq,0,4.95,2.56,3.32\Bq,0,4.95,2.56,3.42\B
 q,0,4.95,2.56,3.52\Bq,0,4.95,2.56,3.62\Bq,0,4.95,2.56,3.72\Bq,0,4.95,2
 .66,-2.18\Bq,0,4.95,2.66,-2.08\Bq,0,4.95,2.66,-1.98\Bq,0,4.95,2.66,-1.
 88\Bq,0,4.95,2.66,-1.78\Bq,0,4.95,2.66,-1.68\Bq,0,4.95,2.66,-1.58\Bq,0
 ,4.95,2.66,-1.48\Bq,0,4.95,2.66,-1.38\Bq,0,4.95,2.66,-1.28\Bq,0,4.95,2
 .66,-1.18\Bq,0,4.95,2.66,-1.08\Bq,0,4.95,2.66,-0.98\Bq,0,4.95,2.66,-0.
 88\Bq,0,4.95,2.66,-0.78\Bq,0,4.95,2.66,-0.68\Bq,0,4.95,2.66,-0.58\Bq,0
 ,4.95,2.66,-0.48\Bq,0,4.95,2.66,-0.38\Bq,0,4.95,2.66,-0.28\Bq,0,4.95,2
 .66,-0.18\Bq,0,4.95,2.66,-0.08\Bq,0,4.95,2.66,0.02\Bq,0,4.95,2.66,0.12
 \Bq,0,4.95,2.66,0.22\Bq,0,4.95,2.66,0.32\Bq,0,4.95,2.66,0.42\Bq,0,4.95
 ,2.66,0.52\Bq,0,4.95,2.66,0.62\Bq,0,4.95,2.66,0.72\Bq,0,4.95,2.66,0.82
 \Bq,0,4.95,2.66,0.92\Bq,0,4.95,2.66,1.02\Bq,0,4.95,2.66,1.12\Bq,0,4.95
 ,2.66,1.22\Bq,0,4.95,2.66,1.32\Bq,0,4.95,2.66,1.42\Bq,0,4.95,2.66,1.52
 \Bq,0,4.95,2.66,1.62\Bq,0,4.95,2.66,1.72\Bq,0,4.95,2.66,1.82\Bq,0,4.95
 ,2.66,1.92\Bq,0,4.95,2.66,2.02\Bq,0,4.95,2.66,2.12\Bq,0,4.95,2.66,2.22
 \Bq,0,4.95,2.66,2.32\Bq,0,4.95,2.66,2.42\Bq,0,4.95,2.66,2.52\Bq,0,4.95
 ,2.66,2.62\Bq,0,4.95,2.66,2.72\Bq,0,4.95,2.66,2.82\Bq,0,4.95,2.66,2.92
 \Bq,0,4.95,2.66,3.02\Bq,0,4.95,2.66,3.12\Bq,0,4.95,2.66,3.22\Bq,0,4.95
 ,2.66,3.32\Bq,0,4.95,2.66,3.42\Bq,0,4.95,2.66,3.52\Bq,0,4.95,2.66,3.62
 \Bq,0,4.95,2.66,3.72\Bq,0,4.95,2.76,-2.18\Bq,0,4.95,2.76,-2.08\Bq,0,4.
 95,2.76,-1.98\Bq,0,4.95,2.76,-1.88\Bq,0,4.95,2.76,-1.78\Bq,0,4.95,2.76
 ,-1.68\Bq,0,4.95,2.76,-1.58\Bq,0,4.95,2.76,-1.48\Bq,0,4.95,2.76,-1.38\
 Bq,0,4.95,2.76,-1.28\Bq,0,4.95,2.76,-1.18\Bq,0,4.95,2.76,-1.08\Bq,0,4.
 95,2.76,-0.98\Bq,0,4.95,2.76,-0.88\Bq,0,4.95,2.76,-0.78\Bq,0,4.95,2.76
 ,-0.68\Bq,0,4.95,2.76,-0.58\Bq,0,4.95,2.76,-0.48\Bq,0,4.95,2.76,-0.38\
 Bq,0,4.95,2.76,-0.28\Bq,0,4.95,2.76,-0.18\Bq,0,4.95,2.76,-0.08\Bq,0,4.
 95,2.76,0.02\Bq,0,4.95,2.76,0.12\Bq,0,4.95,2.76,0.22\Bq,0,4.95,2.76,0.
 32\Bq,0,4.95,2.76,0.42\Bq,0,4.95,2.76,0.52\Bq,0,4.95,2.76,0.62\Bq,0,4.
 95,2.76,0.72\Bq,0,4.95,2.76,0.82\Bq,0,4.95,2.76,0.92\Bq,0,4.95,2.76,1.
 02\Bq,0,4.95,2.76,1.12\Bq,0,4.95,2.76,1.22\Bq,0,4.95,2.76,1.32\Bq,0,4.
 95,2.76,1.42\Bq,0,4.95,2.76,1.52\Bq,0,4.95,2.76,1.62\Bq,0,4.95,2.76,1.
 72\Bq,0,4.95,2.76,1.82\Bq,0,4.95,2.76,1.92\Bq,0,4.95,2.76,2.02\Bq,0,4.
 95,2.76,2.12\Bq,0,4.95,2.76,2.22\Bq,0,4.95,2.76,2.32\Bq,0,4.95,2.76,2.
 42\Bq,0,4.95,2.76,2.52\Bq,0,4.95,2.76,2.62\Bq,0,4.95,2.76,2.72\Bq,0,4.
 95,2.76,2.82\Bq,0,4.95,2.76,2.92\Bq,0,4.95,2.76,3.02\Bq,0,4.95,2.76,3.
 12\Bq,0,4.95,2.76,3.22\Bq,0,4.95,2.76,3.32\Bq,0,4.95,2.76,3.42\Bq,0,4.
 95,2.76,3.52\Bq,0,4.95,2.76,3.62\Bq,0,4.95,2.76,3.72\Bq,0,4.95,2.86,-2
 .18\Bq,0,4.95,2.86,-2.08\Bq,0,4.95,2.86,-1.98\Bq,0,4.95,2.86,-1.88\Bq,
 0,4.95,2.86,-1.78\Bq,0,4.95,2.86,-1.68\Bq,0,4.95,2.86,-1.58\Bq,0,4.95,
 2.86,-1.48\Bq,0,4.95,2.86,-1.38\Bq,0,4.95,2.86,-1.28\Bq,0,4.95,2.86,-1
 .18\Bq,0,4.95,2.86,-1.08\Bq,0,4.95,2.86,-0.98\Bq,0,4.95,2.86,-0.88\Bq,
 0,4.95,2.86,-0.78\Bq,0,4.95,2.86,-0.68\Bq,0,4.95,2.86,-0.58\Bq,0,4.95,
 2.86,-0.48\Bq,0,4.95,2.86,-0.38\Bq,0,4.95,2.86,-0.28\Bq,0,4.95,2.86,-0
 .18\Bq,0,4.95,2.86,-0.08\Bq,0,4.95,2.86,0.02\Bq,0,4.95,2.86,0.12\Bq,0,
 4.95,2.86,0.22\Bq,0,4.95,2.86,0.32\Bq,0,4.95,2.86,0.42\Bq,0,4.95,2.86,
 0.52\Bq,0,4.95,2.86,0.62\Bq,0,4.95,2.86,0.72\Bq,0,4.95,2.86,0.82\Bq,0,
 4.95,2.86,0.92\Bq,0,4.95,2.86,1.02\Bq,0,4.95,2.86,1.12\Bq,0,4.95,2.86,
 1.22\Bq,0,4.95,2.86,1.32\Bq,0,4.95,2.86,1.42\Bq,0,4.95,2.86,1.52\Bq,0,
 4.95,2.86,1.62\Bq,0,4.95,2.86,1.72\Bq,0,4.95,2.86,1.82\Bq,0,4.95,2.86,
 1.92\Bq,0,4.95,2.86,2.02\Bq,0,4.95,2.86,2.12\Bq,0,4.95,2.86,2.22\Bq,0,
 4.95,2.86,2.32\Bq,0,4.95,2.86,2.42\Bq,0,4.95,2.86,2.52\Bq,0,4.95,2.86,
 2.62\Bq,0,4.95,2.86,2.72\Bq,0,4.95,2.86,2.82\Bq,0,4.95,2.86,2.92\Bq,0,
 4.95,2.86,3.02\Bq,0,4.95,2.86,3.12\Bq,0,4.95,2.86,3.22\Bq,0,4.95,2.86,
 3.32\Bq,0,4.95,2.86,3.42\Bq,0,4.95,2.86,3.52\Bq,0,4.95,2.86,3.62\Bq,0,
 4.95,2.86,3.72\Bq,0,4.95,2.96,-2.18\Bq,0,4.95,2.96,-2.08\Bq,0,4.95,2.9
 6,-1.98\Bq,0,4.95,2.96,-1.88\Bq,0,4.95,2.96,-1.78\Bq,0,4.95,2.96,-1.68
 \Bq,0,4.95,2.96,-1.58\Bq,0,4.95,2.96,-1.48\Bq,0,4.95,2.96,-1.38\Bq,0,4
 .95,2.96,-1.28\Bq,0,4.95,2.96,-1.18\Bq,0,4.95,2.96,-1.08\Bq,0,4.95,2.9
 6,-0.98\Bq,0,4.95,2.96,-0.88\Bq,0,4.95,2.96,-0.78\Bq,0,4.95,2.96,-0.68
 \Bq,0,4.95,2.96,-0.58\Bq,0,4.95,2.96,-0.48\Bq,0,4.95,2.96,-0.38\Bq,0,4
 .95,2.96,-0.28\Bq,0,4.95,2.96,-0.18\Bq,0,4.95,2.96,-0.08\Bq,0,4.95,2.9
 6,0.02\Bq,0,4.95,2.96,0.12\Bq,0,4.95,2.96,0.22\Bq,0,4.95,2.96,0.32\Bq,
 0,4.95,2.96,0.42\Bq,0,4.95,2.96,0.52\Bq,0,4.95,2.96,0.62\Bq,0,4.95,2.9
 6,0.72\Bq,0,4.95,2.96,0.82\Bq,0,4.95,2.96,0.92\Bq,0,4.95,2.96,1.02\Bq,
 0,4.95,2.96,1.12\Bq,0,4.95,2.96,1.22\Bq,0,4.95,2.96,1.32\Bq,0,4.95,2.9
 6,1.42\Bq,0,4.95,2.96,1.52\Bq,0,4.95,2.96,1.62\Bq,0,4.95,2.96,1.72\Bq,
 0,4.95,2.96,1.82\Bq,0,4.95,2.96,1.92\Bq,0,4.95,2.96,2.02\Bq,0,4.95,2.9
 6,2.12\Bq,0,4.95,2.96,2.22\Bq,0,4.95,2.96,2.32\Bq,0,4.95,2.96,2.42\Bq,
 0,4.95,2.96,2.52\Bq,0,4.95,2.96,2.62\Bq,0,4.95,2.96,2.72\Bq,0,4.95,2.9
 6,2.82\Bq,0,4.95,2.96,2.92\Bq,0,4.95,2.96,3.02\Bq,0,4.95,2.96,3.12\Bq,
 0,4.95,2.96,3.22\Bq,0,4.95,2.96,3.32\Bq,0,4.95,2.96,3.42\Bq,0,4.95,2.9
 6,3.52\Bq,0,4.95,2.96,3.62\Bq,0,4.95,2.96,3.72\Bq,0,4.95,3.06,-2.18\Bq
 ,0,4.95,3.06,-2.08\Bq,0,4.95,3.06,-1.98\Bq,0,4.95,3.06,-1.88\Bq,0,4.95
 ,3.06,-1.78\Bq,0,4.95,3.06,-1.68\Bq,0,4.95,3.06,-1.58\Bq,0,4.95,3.06,-
 1.48\Bq,0,4.95,3.06,-1.38\Bq,0,4.95,3.06,-1.28\Bq,0,4.95,3.06,-1.18\Bq
 ,0,4.95,3.06,-1.08\Bq,0,4.95,3.06,-0.98\Bq,0,4.95,3.06,-0.88\Bq,0,4.95
 ,3.06,-0.78\Bq,0,4.95,3.06,-0.68\Bq,0,4.95,3.06,-0.58\Bq,0,4.95,3.06,-
 0.48\Bq,0,4.95,3.06,-0.38\Bq,0,4.95,3.06,-0.28\Bq,0,4.95,3.06,-0.18\Bq
 ,0,4.95,3.06,-0.08\Bq,0,4.95,3.06,0.02\Bq,0,4.95,3.06,0.12\Bq,0,4.95,3
 .06,0.22\Bq,0,4.95,3.06,0.32\Bq,0,4.95,3.06,0.42\Bq,0,4.95,3.06,0.52\B
 q,0,4.95,3.06,0.62\Bq,0,4.95,3.06,0.72\Bq,0,4.95,3.06,0.82\Bq,0,4.95,3
 .06,0.92\Bq,0,4.95,3.06,1.02\Bq,0,4.95,3.06,1.12\Bq,0,4.95,3.06,1.22\B
 q,0,4.95,3.06,1.32\Bq,0,4.95,3.06,1.42\Bq,0,4.95,3.06,1.52\Bq,0,4.95,3
 .06,1.62\Bq,0,4.95,3.06,1.72\Bq,0,4.95,3.06,1.82\Bq,0,4.95,3.06,1.92\B
 q,0,4.95,3.06,2.02\Bq,0,4.95,3.06,2.12\Bq,0,4.95,3.06,2.22\Bq,0,4.95,3
 .06,2.32\Bq,0,4.95,3.06,2.42\Bq,0,4.95,3.06,2.52\Bq,0,4.95,3.06,2.62\B
 q,0,4.95,3.06,2.72\Bq,0,4.95,3.06,2.82\Bq,0,4.95,3.06,2.92\Bq,0,4.95,3
 .06,3.02\Bq,0,4.95,3.06,3.12\Bq,0,4.95,3.06,3.22\Bq,0,4.95,3.06,3.32\B
 q,0,4.95,3.06,3.42\Bq,0,4.95,3.06,3.52\Bq,0,4.95,3.06,3.62\Bq,0,4.95,3
 .06,3.72\Bq,0,4.95,3.16,-2.18\Bq,0,4.95,3.16,-2.08\Bq,0,4.95,3.16,-1.9
 8\Bq,0,4.95,3.16,-1.88\Bq,0,4.95,3.16,-1.78\Bq,0,4.95,3.16,-1.68\Bq,0,
 4.95,3.16,-1.58\Bq,0,4.95,3.16,-1.48\Bq,0,4.95,3.16,-1.38\Bq,0,4.95,3.
 16,-1.28\Bq,0,4.95,3.16,-1.18\Bq,0,4.95,3.16,-1.08\Bq,0,4.95,3.16,-0.9
 8\Bq,0,4.95,3.16,-0.88\Bq,0,4.95,3.16,-0.78\Bq,0,4.95,3.16,-0.68\Bq,0,
 4.95,3.16,-0.58\Bq,0,4.95,3.16,-0.48\Bq,0,4.95,3.16,-0.38\Bq,0,4.95,3.
 16,-0.28\Bq,0,4.95,3.16,-0.18\Bq,0,4.95,3.16,-0.08\Bq,0,4.95,3.16,0.02
 \Bq,0,4.95,3.16,0.12\Bq,0,4.95,3.16,0.22\Bq,0,4.95,3.16,0.32\Bq,0,4.95
 ,3.16,0.42\Bq,0,4.95,3.16,0.52\Bq,0,4.95,3.16,0.62\Bq,0,4.95,3.16,0.72
 \Bq,0,4.95,3.16,0.82\Bq,0,4.95,3.16,0.92\Bq,0,4.95,3.16,1.02\Bq,0,4.95
 ,3.16,1.12\Bq,0,4.95,3.16,1.22\Bq,0,4.95,3.16,1.32\Bq,0,4.95,3.16,1.42
 \Bq,0,4.95,3.16,1.52\Bq,0,4.95,3.16,1.62\Bq,0,4.95,3.16,1.72\Bq,0,4.95
 ,3.16,1.82\Bq,0,4.95,3.16,1.92\Bq,0,4.95,3.16,2.02\Bq,0,4.95,3.16,2.12
 \Bq,0,4.95,3.16,2.22\Bq,0,4.95,3.16,2.32\Bq,0,4.95,3.16,2.42\Bq,0,4.95
 ,3.16,2.52\Bq,0,4.95,3.16,2.62\Bq,0,4.95,3.16,2.72\Bq,0,4.95,3.16,2.82
 \Bq,0,4.95,3.16,2.92\Bq,0,4.95,3.16,3.02\Bq,0,4.95,3.16,3.12\Bq,0,4.95
 ,3.16,3.22\Bq,0,4.95,3.16,3.32\Bq,0,4.95,3.16,3.42\Bq,0,4.95,3.16,3.52
 \Bq,0,4.95,3.16,3.62\Bq,0,4.95,3.16,3.72\Bq,0,4.95,3.26,-2.18\Bq,0,4.9
 5,3.26,-2.08\Bq,0,4.95,3.26,-1.98\Bq,0,4.95,3.26,-1.88\Bq,0,4.95,3.26,
 -1.78\Bq,0,4.95,3.26,-1.68\Bq,0,4.95,3.26,-1.58\Bq,0,4.95,3.26,-1.48\B
 q,0,4.95,3.26,-1.38\Bq,0,4.95,3.26,-1.28\Bq,0,4.95,3.26,-1.18\Bq,0,4.9
 5,3.26,-1.08\Bq,0,4.95,3.26,-0.98\Bq,0,4.95,3.26,-0.88\Bq,0,4.95,3.26,
 -0.78\Bq,0,4.95,3.26,-0.68\Bq,0,4.95,3.26,-0.58\Bq,0,4.95,3.26,-0.48\B
 q,0,4.95,3.26,-0.38\Bq,0,4.95,3.26,-0.28\Bq,0,4.95,3.26,-0.18\Bq,0,4.9
 5,3.26,-0.08\Bq,0,4.95,3.26,0.02\Bq,0,4.95,3.26,0.12\Bq,0,4.95,3.26,0.
 22\Bq,0,4.95,3.26,0.32\Bq,0,4.95,3.26,0.42\Bq,0,4.95,3.26,0.52\Bq,0,4.
 95,3.26,0.62\Bq,0,4.95,3.26,0.72\Bq,0,4.95,3.26,0.82\Bq,0,4.95,3.26,0.
 92\Bq,0,4.95,3.26,1.02\Bq,0,4.95,3.26,1.12\Bq,0,4.95,3.26,1.22\Bq,0,4.
 95,3.26,1.32\Bq,0,4.95,3.26,1.42\Bq,0,4.95,3.26,1.52\Bq,0,4.95,3.26,1.
 62\Bq,0,4.95,3.26,1.72\Bq,0,4.95,3.26,1.82\Bq,0,4.95,3.26,1.92\Bq,0,4.
 95,3.26,2.02\Bq,0,4.95,3.26,2.12\Bq,0,4.95,3.26,2.22\Bq,0,4.95,3.26,2.
 32\Bq,0,4.95,3.26,2.42\Bq,0,4.95,3.26,2.52\Bq,0,4.95,3.26,2.62\Bq,0,4.
 95,3.26,2.72\Bq,0,4.95,3.26,2.82\Bq,0,4.95,3.26,2.92\Bq,0,4.95,3.26,3.
 02\Bq,0,4.95,3.26,3.12\Bq,0,4.95,3.26,3.22\Bq,0,4.95,3.26,3.32\Bq,0,4.
 95,3.26,3.42\Bq,0,4.95,3.26,3.52\Bq,0,4.95,3.26,3.62\Bq,0,4.95,3.26,3.
 72\Bq,0,4.95,3.36,-2.18\Bq,0,4.95,3.36,-2.08\Bq,0,4.95,3.36,-1.98\Bq,0
 ,4.95,3.36,-1.88\Bq,0,4.95,3.36,-1.78\Bq,0,4.95,3.36,-1.68\Bq,0,4.95,3
 .36,-1.58\Bq,0,4.95,3.36,-1.48\Bq,0,4.95,3.36,-1.38\Bq,0,4.95,3.36,-1.
 28\Bq,0,4.95,3.36,-1.18\Bq,0,4.95,3.36,-1.08\Bq,0,4.95,3.36,-0.98\Bq,0
 ,4.95,3.36,-0.88\Bq,0,4.95,3.36,-0.78\Bq,0,4.95,3.36,-0.68\Bq,0,4.95,3
 .36,-0.58\Bq,0,4.95,3.36,-0.48\Bq,0,4.95,3.36,-0.38\Bq,0,4.95,3.36,-0.
 28\Bq,0,4.95,3.36,-0.18\Bq,0,4.95,3.36,-0.08\Bq,0,4.95,3.36,0.02\Bq,0,
 4.95,3.36,0.12\Bq,0,4.95,3.36,0.22\Bq,0,4.95,3.36,0.32\Bq,0,4.95,3.36,
 0.42\Bq,0,4.95,3.36,0.52\Bq,0,4.95,3.36,0.62\Bq,0,4.95,3.36,0.72\Bq,0,
 4.95,3.36,0.82\Bq,0,4.95,3.36,0.92\Bq,0,4.95,3.36,1.02\Bq,0,4.95,3.36,
 1.12\Bq,0,4.95,3.36,1.22\Bq,0,4.95,3.36,1.32\Bq,0,4.95,3.36,1.42\Bq,0,
 4.95,3.36,1.52\Bq,0,4.95,3.36,1.62\Bq,0,4.95,3.36,1.72\Bq,0,4.95,3.36,
 1.82\Bq,0,4.95,3.36,1.92\Bq,0,4.95,3.36,2.02\Bq,0,4.95,3.36,2.12\Bq,0,
 4.95,3.36,2.22\Bq,0,4.95,3.36,2.32\Bq,0,4.95,3.36,2.42\Bq,0,4.95,3.36,
 2.52\Bq,0,4.95,3.36,2.62\Bq,0,4.95,3.36,2.72\Bq,0,4.95,3.36,2.82\Bq,0,
 4.95,3.36,2.92\Bq,0,4.95,3.36,3.02\Bq,0,4.95,3.36,3.12\Bq,0,4.95,3.36,
 3.22\Bq,0,4.95,3.36,3.32\Bq,0,4.95,3.36,3.42\Bq,0,4.95,3.36,3.52\Bq,0,
 4.95,3.36,3.62\Bq,0,4.95,3.36,3.72\Bq,0,4.95,3.46,-2.18\Bq,0,4.95,3.46
 ,-2.08\Bq,0,4.95,3.46,-1.98\Bq,0,4.95,3.46,-1.88\Bq,0,4.95,3.46,-1.78\
 Bq,0,4.95,3.46,-1.68\Bq,0,4.95,3.46,-1.58\Bq,0,4.95,3.46,-1.48\Bq,0,4.
 95,3.46,-1.38\Bq,0,4.95,3.46,-1.28\Bq,0,4.95,3.46,-1.18\Bq,0,4.95,3.46
 ,-1.08\Bq,0,4.95,3.46,-0.98\Bq,0,4.95,3.46,-0.88\Bq,0,4.95,3.46,-0.78\
 Bq,0,4.95,3.46,-0.68\Bq,0,4.95,3.46,-0.58\Bq,0,4.95,3.46,-0.48\Bq,0,4.
 95,3.46,-0.38\Bq,0,4.95,3.46,-0.28\Bq,0,4.95,3.46,-0.18\Bq,0,4.95,3.46
 ,-0.08\Bq,0,4.95,3.46,0.02\Bq,0,4.95,3.46,0.12\Bq,0,4.95,3.46,0.22\Bq,
 0,4.95,3.46,0.32\Bq,0,4.95,3.46,0.42\Bq,0,4.95,3.46,0.52\Bq,0,4.95,3.4
 6,0.62\Bq,0,4.95,3.46,0.72\Bq,0,4.95,3.46,0.82\Bq,0,4.95,3.46,0.92\Bq,
 0,4.95,3.46,1.02\Bq,0,4.95,3.46,1.12\Bq,0,4.95,3.46,1.22\Bq,0,4.95,3.4
 6,1.32\Bq,0,4.95,3.46,1.42\Bq,0,4.95,3.46,1.52\Bq,0,4.95,3.46,1.62\Bq,
 0,4.95,3.46,1.72\Bq,0,4.95,3.46,1.82\Bq,0,4.95,3.46,1.92\Bq,0,4.95,3.4
 6,2.02\Bq,0,4.95,3.46,2.12\Bq,0,4.95,3.46,2.22\Bq,0,4.95,3.46,2.32\Bq,
 0,4.95,3.46,2.42\Bq,0,4.95,3.46,2.52\Bq,0,4.95,3.46,2.62\Bq,0,4.95,3.4
 6,2.72\Bq,0,4.95,3.46,2.82\Bq,0,4.95,3.46,2.92\Bq,0,4.95,3.46,3.02\Bq,
 0,4.95,3.46,3.12\Bq,0,4.95,3.46,3.22\Bq,0,4.95,3.46,3.32\Bq,0,4.95,3.4
 6,3.42\Bq,0,4.95,3.46,3.52\Bq,0,4.95,3.46,3.62\Bq,0,4.95,3.46,3.72\Bq,
 0,4.95,3.56,-2.18\Bq,0,4.95,3.56,-2.08\Bq,0,4.95,3.56,-1.98\Bq,0,4.95,
 3.56,-1.88\Bq,0,4.95,3.56,-1.78\Bq,0,4.95,3.56,-1.68\Bq,0,4.95,3.56,-1
 .58\Bq,0,4.95,3.56,-1.48\Bq,0,4.95,3.56,-1.38\Bq,0,4.95,3.56,-1.28\Bq,
 0,4.95,3.56,-1.18\Bq,0,4.95,3.56,-1.08\Bq,0,4.95,3.56,-0.98\Bq,0,4.95,
 3.56,-0.88\Bq,0,4.95,3.56,-0.78\Bq,0,4.95,3.56,-0.68\Bq,0,4.95,3.56,-0
 .58\Bq,0,4.95,3.56,-0.48\Bq,0,4.95,3.56,-0.38\Bq,0,4.95,3.56,-0.28\Bq,
 0,4.95,3.56,-0.18\Bq,0,4.95,3.56,-0.08\Bq,0,4.95,3.56,0.02\Bq,0,4.95,3
 .56,0.12\Bq,0,4.95,3.56,0.22\Bq,0,4.95,3.56,0.32\Bq,0,4.95,3.56,0.42\B
 q,0,4.95,3.56,0.52\Bq,0,4.95,3.56,0.62\Bq,0,4.95,3.56,0.72\Bq,0,4.95,3
 .56,0.82\Bq,0,4.95,3.56,0.92\Bq,0,4.95,3.56,1.02\Bq,0,4.95,3.56,1.12\B
 q,0,4.95,3.56,1.22\Bq,0,4.95,3.56,1.32\Bq,0,4.95,3.56,1.42\Bq,0,4.95,3
 .56,1.52\Bq,0,4.95,3.56,1.62\Bq,0,4.95,3.56,1.72\Bq,0,4.95,3.56,1.82\B
 q,0,4.95,3.56,1.92\Bq,0,4.95,3.56,2.02\Bq,0,4.95,3.56,2.12\Bq,0,4.95,3
 .56,2.22\Bq,0,4.95,3.56,2.32\Bq,0,4.95,3.56,2.42\Bq,0,4.95,3.56,2.52\B
 q,0,4.95,3.56,2.62\Bq,0,4.95,3.56,2.72\Bq,0,4.95,3.56,2.82\Bq,0,4.95,3
 .56,2.92\Bq,0,4.95,3.56,3.02\Bq,0,4.95,3.56,3.12\Bq,0,4.95,3.56,3.22\B
 q,0,4.95,3.56,3.32\Bq,0,4.95,3.56,3.42\Bq,0,4.95,3.56,3.52\Bq,0,4.95,3
 .56,3.62\Bq,0,4.95,3.56,3.72\Bq,0,4.95,3.66,-2.18\Bq,0,4.95,3.66,-2.08
 \Bq,0,4.95,3.66,-1.98\Bq,0,4.95,3.66,-1.88\Bq,0,4.95,3.66,-1.78\Bq,0,4
 .95,3.66,-1.68\Bq,0,4.95,3.66,-1.58\Bq,0,4.95,3.66,-1.48\Bq,0,4.95,3.6
 6,-1.38\Bq,0,4.95,3.66,-1.28\Bq,0,4.95,3.66,-1.18\Bq,0,4.95,3.66,-1.08
 \Bq,0,4.95,3.66,-0.98\Bq,0,4.95,3.66,-0.88\Bq,0,4.95,3.66,-0.78\Bq,0,4
 .95,3.66,-0.68\Bq,0,4.95,3.66,-0.58\Bq,0,4.95,3.66,-0.48\Bq,0,4.95,3.6
 6,-0.38\Bq,0,4.95,3.66,-0.28\Bq,0,4.95,3.66,-0.18\Bq,0,4.95,3.66,-0.08
 \Bq,0,4.95,3.66,0.02\Bq,0,4.95,3.66,0.12\Bq,0,4.95,3.66,0.22\Bq,0,4.95
 ,3.66,0.32\Bq,0,4.95,3.66,0.42\Bq,0,4.95,3.66,0.52\Bq,0,4.95,3.66,0.62
 \Bq,0,4.95,3.66,0.72\Bq,0,4.95,3.66,0.82\Bq,0,4.95,3.66,0.92\Bq,0,4.95
 ,3.66,1.02\Bq,0,4.95,3.66,1.12\Bq,0,4.95,3.66,1.22\Bq,0,4.95,3.66,1.32
 \Bq,0,4.95,3.66,1.42\Bq,0,4.95,3.66,1.52\Bq,0,4.95,3.66,1.62\Bq,0,4.95
 ,3.66,1.72\Bq,0,4.95,3.66,1.82\Bq,0,4.95,3.66,1.92\Bq,0,4.95,3.66,2.02
 \Bq,0,4.95,3.66,2.12\Bq,0,4.95,3.66,2.22\Bq,0,4.95,3.66,2.32\Bq,0,4.95
 ,3.66,2.42\Bq,0,4.95,3.66,2.52\Bq,0,4.95,3.66,2.62\Bq,0,4.95,3.66,2.72
 \Bq,0,4.95,3.66,2.82\Bq,0,4.95,3.66,2.92\Bq,0,4.95,3.66,3.02\Bq,0,4.95
 ,3.66,3.12\Bq,0,4.95,3.66,3.22\Bq,0,4.95,3.66,3.32\Bq,0,4.95,3.66,3.42
 \Bq,0,4.95,3.66,3.52\Bq,0,4.95,3.66,3.62\Bq,0,4.95,3.66,3.72\Bq,0,4.95
 ,3.76,-2.18\Bq,0,4.95,3.76,-2.08\Bq,0,4.95,3.76,-1.98\Bq,0,4.95,3.76,-
 1.88\Bq,0,4.95,3.76,-1.78\Bq,0,4.95,3.76,-1.68\Bq,0,4.95,3.76,-1.58\Bq
 ,0,4.95,3.76,-1.48\Bq,0,4.95,3.76,-1.38\Bq,0,4.95,3.76,-1.28\Bq,0,4.95
 ,3.76,-1.18\Bq,0,4.95,3.76,-1.08\Bq,0,4.95,3.76,-0.98\Bq,0,4.95,3.76,-
 0.88\Bq,0,4.95,3.76,-0.78\Bq,0,4.95,3.76,-0.68\Bq,0,4.95,3.76,-0.58\Bq
 ,0,4.95,3.76,-0.48\Bq,0,4.95,3.76,-0.38\Bq,0,4.95,3.76,-0.28\Bq,0,4.95
 ,3.76,-0.18\Bq,0,4.95,3.76,-0.08\Bq,0,4.95,3.76,0.02\Bq,0,4.95,3.76,0.
 12\Bq,0,4.95,3.76,0.22\Bq,0,4.95,3.76,0.32\Bq,0,4.95,3.76,0.42\Bq,0,4.
 95,3.76,0.52\Bq,0,4.95,3.76,0.62\Bq,0,4.95,3.76,0.72\Bq,0,4.95,3.76,0.
 82\Bq,0,4.95,3.76,0.92\Bq,0,4.95,3.76,1.02\Bq,0,4.95,3.76,1.12\Bq,0,4.
 95,3.76,1.22\Bq,0,4.95,3.76,1.32\Bq,0,4.95,3.76,1.42\Bq,0,4.95,3.76,1.
 52\Bq,0,4.95,3.76,1.62\Bq,0,4.95,3.76,1.72\Bq,0,4.95,3.76,1.82\Bq,0,4.
 95,3.76,1.92\Bq,0,4.95,3.76,2.02\Bq,0,4.95,3.76,2.12\Bq,0,4.95,3.76,2.
 22\Bq,0,4.95,3.76,2.32\Bq,0,4.95,3.76,2.42\Bq,0,4.95,3.76,2.52\Bq,0,4.
 95,3.76,2.62\Bq,0,4.95,3.76,2.72\Bq,0,4.95,3.76,2.82\Bq,0,4.95,3.76,2.
 92\Bq,0,4.95,3.76,3.02\Bq,0,4.95,3.76,3.12\Bq,0,4.95,3.76,3.22\Bq,0,4.
 95,3.76,3.32\Bq,0,4.95,3.76,3.42\Bq,0,4.95,3.76,3.52\Bq,0,4.95,3.76,3.
 62\Bq,0,4.95,3.76,3.72\Bq,0,4.95,3.86,-2.18\Bq,0,4.95,3.86,-2.08\Bq,0,
 4.95,3.86,-1.98\Bq,0,4.95,3.86,-1.88\Bq,0,4.95,3.86,-1.78\Bq,0,4.95,3.
 86,-1.68\Bq,0,4.95,3.86,-1.58\Bq,0,4.95,3.86,-1.48\Bq,0,4.95,3.86,-1.3
 8\Bq,0,4.95,3.86,-1.28\Bq,0,4.95,3.86,-1.18\Bq,0,4.95,3.86,-1.08\Bq,0,
 4.95,3.86,-0.98\Bq,0,4.95,3.86,-0.88\Bq,0,4.95,3.86,-0.78\Bq,0,4.95,3.
 86,-0.68\Bq,0,4.95,3.86,-0.58\Bq,0,4.95,3.86,-0.48\Bq,0,4.95,3.86,-0.3
 8\Bq,0,4.95,3.86,-0.28\Bq,0,4.95,3.86,-0.18\Bq,0,4.95,3.86,-0.08\Bq,0,
 4.95,3.86,0.02\Bq,0,4.95,3.86,0.12\Bq,0,4.95,3.86,0.22\Bq,0,4.95,3.86,
 0.32\Bq,0,4.95,3.86,0.42\Bq,0,4.95,3.86,0.52\Bq,0,4.95,3.86,0.62\Bq,0,
 4.95,3.86,0.72\Bq,0,4.95,3.86,0.82\Bq,0,4.95,3.86,0.92\Bq,0,4.95,3.86,
 1.02\Bq,0,4.95,3.86,1.12\Bq,0,4.95,3.86,1.22\Bq,0,4.95,3.86,1.32\Bq,0,
 4.95,3.86,1.42\Bq,0,4.95,3.86,1.52\Bq,0,4.95,3.86,1.62\Bq,0,4.95,3.86,
 1.72\Bq,0,4.95,3.86,1.82\Bq,0,4.95,3.86,1.92\Bq,0,4.95,3.86,2.02\Bq,0,
 4.95,3.86,2.12\Bq,0,4.95,3.86,2.22\Bq,0,4.95,3.86,2.32\Bq,0,4.95,3.86,
 2.42\Bq,0,4.95,3.86,2.52\Bq,0,4.95,3.86,2.62\Bq,0,4.95,3.86,2.72\Bq,0,
 4.95,3.86,2.82\Bq,0,4.95,3.86,2.92\Bq,0,4.95,3.86,3.02\Bq,0,4.95,3.86,
 3.12\Bq,0,4.95,3.86,3.22\Bq,0,4.95,3.86,3.32\Bq,0,4.95,3.86,3.42\Bq,0,
 4.95,3.86,3.52\Bq,0,4.95,3.86,3.62\Bq,0,4.95,3.86,3.72\Bq,0,4.95,3.96,
 -2.18\Bq,0,4.95,3.96,-2.08\Bq,0,4.95,3.96,-1.98\Bq,0,4.95,3.96,-1.88\B
 q,0,4.95,3.96,-1.78\Bq,0,4.95,3.96,-1.68\Bq,0,4.95,3.96,-1.58\Bq,0,4.9
 5,3.96,-1.48\Bq,0,4.95,3.96,-1.38\Bq,0,4.95,3.96,-1.28\Bq,0,4.95,3.96,
 -1.18\Bq,0,4.95,3.96,-1.08\Bq,0,4.95,3.96,-0.98\Bq,0,4.95,3.96,-0.88\B
 q,0,4.95,3.96,-0.78\Bq,0,4.95,3.96,-0.68\Bq,0,4.95,3.96,-0.58\Bq,0,4.9
 5,3.96,-0.48\Bq,0,4.95,3.96,-0.38\Bq,0,4.95,3.96,-0.28\Bq,0,4.95,3.96,
 -0.18\Bq,0,4.95,3.96,-0.08\Bq,0,4.95,3.96,0.02\Bq,0,4.95,3.96,0.12\Bq,
 0,4.95,3.96,0.22\Bq,0,4.95,3.96,0.32\Bq,0,4.95,3.96,0.42\Bq,0,4.95,3.9
 6,0.52\Bq,0,4.95,3.96,0.62\Bq,0,4.95,3.96,0.72\Bq,0,4.95,3.96,0.82\Bq,
 0,4.95,3.96,0.92\Bq,0,4.95,3.96,1.02\Bq,0,4.95,3.96,1.12\Bq,0,4.95,3.9
 6,1.22\Bq,0,4.95,3.96,1.32\Bq,0,4.95,3.96,1.42\Bq,0,4.95,3.96,1.52\Bq,
 0,4.95,3.96,1.62\Bq,0,4.95,3.96,1.72\Bq,0,4.95,3.96,1.82\Bq,0,4.95,3.9
 6,1.92\Bq,0,4.95,3.96,2.02\Bq,0,4.95,3.96,2.12\Bq,0,4.95,3.96,2.22\Bq,
 0,4.95,3.96,2.32\Bq,0,4.95,3.96,2.42\Bq,0,4.95,3.96,2.52\Bq,0,4.95,3.9
 6,2.62\Bq,0,4.95,3.96,2.72\Bq,0,4.95,3.96,2.82\Bq,0,4.95,3.96,2.92\Bq,
 0,4.95,3.96,3.02\Bq,0,4.95,3.96,3.12\Bq,0,4.95,3.96,3.22\Bq,0,4.95,3.9
 6,3.32\Bq,0,4.95,3.96,3.42\Bq,0,4.95,3.96,3.52\Bq,0,4.95,3.96,3.62\Bq,
 0,4.95,3.96,3.72\Bq,0,4.95,4.06,-2.18\Bq,0,4.95,4.06,-2.08\Bq,0,4.95,4
 .06,-1.98\Bq,0,4.95,4.06,-1.88\Bq,0,4.95,4.06,-1.78\Bq,0,4.95,4.06,-1.
 68\Bq,0,4.95,4.06,-1.58\Bq,0,4.95,4.06,-1.48\Bq,0,4.95,4.06,-1.38\Bq,0
 ,4.95,4.06,-1.28\Bq,0,4.95,4.06,-1.18\Bq,0,4.95,4.06,-1.08\Bq,0,4.95,4
 .06,-0.98\Bq,0,4.95,4.06,-0.88\Bq,0,4.95,4.06,-0.78\Bq,0,4.95,4.06,-0.
 68\Bq,0,4.95,4.06,-0.58\Bq,0,4.95,4.06,-0.48\Bq,0,4.95,4.06,-0.38\Bq,0
 ,4.95,4.06,-0.28\Bq,0,4.95,4.06,-0.18\Bq,0,4.95,4.06,-0.08\Bq,0,4.95,4
 .06,0.02\Bq,0,4.95,4.06,0.12\Bq,0,4.95,4.06,0.22\Bq,0,4.95,4.06,0.32\B
 q,0,4.95,4.06,0.42\Bq,0,4.95,4.06,0.52\Bq,0,4.95,4.06,0.62\Bq,0,4.95,4
 .06,0.72\Bq,0,4.95,4.06,0.82\Bq,0,4.95,4.06,0.92\Bq,0,4.95,4.06,1.02\B
 q,0,4.95,4.06,1.12\Bq,0,4.95,4.06,1.22\Bq,0,4.95,4.06,1.32\Bq,0,4.95,4
 .06,1.42\Bq,0,4.95,4.06,1.52\Bq,0,4.95,4.06,1.62\Bq,0,4.95,4.06,1.72\B
 q,0,4.95,4.06,1.82\Bq,0,4.95,4.06,1.92\Bq,0,4.95,4.06,2.02\Bq,0,4.95,4
 .06,2.12\Bq,0,4.95,4.06,2.22\Bq,0,4.95,4.06,2.32\Bq,0,4.95,4.06,2.42\B
 q,0,4.95,4.06,2.52\Bq,0,4.95,4.06,2.62\Bq,0,4.95,4.06,2.72\Bq,0,4.95,4
 .06,2.82\Bq,0,4.95,4.06,2.92\Bq,0,4.95,4.06,3.02\Bq,0,4.95,4.06,3.12\B
 q,0,4.95,4.06,3.22\Bq,0,4.95,4.06,3.32\Bq,0,4.95,4.06,3.42\Bq,0,4.95,4
 .06,3.52\Bq,0,4.95,4.06,3.62\Bq,0,4.95,4.06,3.72\\Version=ES64L-G16Rev
 A.03\HF=-389.1508215\RMSD=8.314e-09\Dipole=-0.1859742,0.4639801,0.0343
 516\Quadrupole=0.2396205,2.3316454,-2.5712659,0.38541,-0.3845792,-0.14
 87383\PG=C01 [X(C8H8B1N1)]\\@


 I WANT IT ALL - RICH, THIN, AND CHOCOLATE.
 Job cpu time:       0 days  1 hours 26 minutes 22.5 seconds.
 Elapsed time:       0 days  0 hours  2 minutes 33.3 seconds.
 File lengths (MBytes):  RWF=     62 Int=      0 D2E=      0 Chk=     24 Scr=      1
 Normal termination of Gaussian 16 at Wed Nov 19 22:14:09 2025.
