[Molden Format]
[Atoms] Angs
 c       1                    6  2.404575198709e+00 -6.066026123716e-01  6.307752616080e-01
 c       2                    6  2.259319703459e+00  8.103202236299e-01  8.142151466349e-01
 c       3                    6  1.041749699619e+00  1.421346888280e+00  6.223911261412e-01
 n       4                    7 -6.208334891380e-02  6.580665281905e-01  2.533002815725e-01
 b       5                    5 -4.872039869657e-02 -8.009144659231e-01  5.959713916385e-02
 c       6                    6  1.324029637729e+00 -1.414441078595e+00  2.947075100997e-01
 c       7                    6 -1.348759551299e+00 -1.471168530981e+00 -4.247303626112e-01
 c       8                    6 -2.504107239179e+00 -6.804511613903e-01 -5.289026063168e-01
 c       9                    6 -2.317512752732e+00  7.219780278669e-01 -6.032805860972e-01
 c      10                    6 -1.019535677482e+00  1.251819428979e+00 -5.479431855808e-01
 h      11                    1  3.397237267301e+00 -1.041411087352e+00  7.747760436951e-01
 h      12                    1  3.119655367466e+00  1.436786797805e+00  1.061542955487e+00
 h      13                    1  8.983742880179e-01  2.503120425763e+00  7.396515152519e-01
 h      14                    1  1.487088450522e+00 -2.486825099401e+00  1.698463568314e-01
 h      15                    1 -1.395162414339e+00 -2.544218490042e+00 -6.429937654021e-01
 h      16                    1 -3.511822300834e+00 -1.099412607222e+00 -6.559278558904e-01
 h      17                    1 -3.138737810675e+00  1.431766724186e+00 -7.092093372456e-01
 h      18                    1 -5.855881186725e-01  1.910240088579e+00 -1.307815637342e+00
[GTO]
1
 s           8
      6.665000000000e+03      6.915839628130e-04
      1.000000000000e+03      5.325796152934e-03
      2.280000000000e+02      2.706072104203e-02
      6.471000000000e+01      1.016568461408e-01
      2.106000000000e+01      2.745748236174e-01
      7.495000000000e+00      4.482943189238e-01
      2.797000000000e+00      2.849026107152e-01
      5.215000000000e-01      1.519485920608e-02
 s           8
      6.665000000000e+03     -2.932696526865e-04
      1.000000000000e+03     -2.318035473975e-03
      2.280000000000e+02     -1.149978603857e-02
      6.471000000000e+01     -4.682672700979e-02
      2.106000000000e+01     -1.284661687505e-01
      7.495000000000e+00     -3.012662724629e-01
      2.797000000000e+00     -2.556307023301e-01
      5.215000000000e-01      1.093793361012e+00
 s           1
      1.596000000000e-01      1.000000000000e+00
 s           1
      4.690000000000e-02      1.000000000000e+00
 p           3
      9.439000000000e+00      5.697925159004e-02
      2.002000000000e+00      3.132072115007e-01
      5.456000000000e-01      7.603767417375e-01
 p           1
      1.517000000000e-01      1.000000000000e+00
 p           1
      4.041000000000e-02      1.000000000000e+00
 d           1
      5.500000000000e-01      1.000000000000e+00
 d           1
      1.510000000000e-01      1.000000000000e+00

2
 s           8
      6.665000000000e+03      6.915839628130e-04
      1.000000000000e+03      5.325796152934e-03
      2.280000000000e+02      2.706072104203e-02
      6.471000000000e+01      1.016568461408e-01
      2.106000000000e+01      2.745748236174e-01
      7.495000000000e+00      4.482943189238e-01
      2.797000000000e+00      2.849026107152e-01
      5.215000000000e-01      1.519485920608e-02
 s           8
      6.665000000000e+03     -2.932696526865e-04
      1.000000000000e+03     -2.318035473975e-03
      2.280000000000e+02     -1.149978603857e-02
      6.471000000000e+01     -4.682672700979e-02
      2.106000000000e+01     -1.284661687505e-01
      7.495000000000e+00     -3.012662724629e-01
      2.797000000000e+00     -2.556307023301e-01
      5.215000000000e-01      1.093793361012e+00
 s           1
      1.596000000000e-01      1.000000000000e+00
 s           1
      4.690000000000e-02      1.000000000000e+00
 p           3
      9.439000000000e+00      5.697925159004e-02
      2.002000000000e+00      3.132072115007e-01
      5.456000000000e-01      7.603767417375e-01
 p           1
      1.517000000000e-01      1.000000000000e+00
 p           1
      4.041000000000e-02      1.000000000000e+00
 d           1
      5.500000000000e-01      1.000000000000e+00
 d           1
      1.510000000000e-01      1.000000000000e+00

3
 s           8
      6.665000000000e+03      6.915839628130e-04
      1.000000000000e+03      5.325796152934e-03
      2.280000000000e+02      2.706072104203e-02
      6.471000000000e+01      1.016568461408e-01
      2.106000000000e+01      2.745748236174e-01
      7.495000000000e+00      4.482943189238e-01
      2.797000000000e+00      2.849026107152e-01
      5.215000000000e-01      1.519485920608e-02
 s           8
      6.665000000000e+03     -2.932696526865e-04
      1.000000000000e+03     -2.318035473975e-03
      2.280000000000e+02     -1.149978603857e-02
      6.471000000000e+01     -4.682672700979e-02
      2.106000000000e+01     -1.284661687505e-01
      7.495000000000e+00     -3.012662724629e-01
      2.797000000000e+00     -2.556307023301e-01
      5.215000000000e-01      1.093793361012e+00
 s           1
      1.596000000000e-01      1.000000000000e+00
 s           1
      4.690000000000e-02      1.000000000000e+00
 p           3
      9.439000000000e+00      5.697925159004e-02
      2.002000000000e+00      3.132072115007e-01
      5.456000000000e-01      7.603767417375e-01
 p           1
      1.517000000000e-01      1.000000000000e+00
 p           1
      4.041000000000e-02      1.000000000000e+00
 d           1
      5.500000000000e-01      1.000000000000e+00
 d           1
      1.510000000000e-01      1.000000000000e+00

4
 s           8
      9.046000000000e+03      6.996174134255e-04
      1.357000000000e+03      5.386054629929e-03
      3.093000000000e+02      2.739102118906e-02
      8.773000000000e+01      1.031505919820e-01
      2.856000000000e+01      2.785706633174e-01
      1.021000000000e+01      4.482948494541e-01
      3.838000000000e+00      2.780859283953e-01
      7.466000000000e-01      1.543156123327e-02
 s           8
      9.046000000000e+03     -3.049900959534e-04
      1.357000000000e+03     -2.408026378508e-03
      3.093000000000e+02     -1.194444872518e-02
      8.773000000000e+01     -4.892599290902e-02
      2.856000000000e+01     -1.344727247250e-01
      1.021000000000e+01     -3.151125777001e-01
      3.838000000000e+00     -2.428578325496e-01
      7.466000000000e-01      1.094382206854e+00
 s           1
      2.248000000000e-01      1.000000000000e+00
 s           1
      6.124000000000e-02      1.000000000000e+00
 p           3
      1.355000000000e+01      5.890567677213e-02
      2.917000000000e+00      3.204611067143e-01
      7.973000000000e-01      7.530420617921e-01
 p           1
      2.185000000000e-01      1.000000000000e+00
 p           1
      5.611000000000e-02      1.000000000000e+00
 d           1
      8.170000000000e-01      1.000000000000e+00
 d           1
      2.300000000000e-01      1.000000000000e+00

5
 s           8
      4.570000000000e+03      6.955544180306e-04
      6.859000000000e+02      5.349572988100e-03
      1.565000000000e+02      2.711662870523e-02
      4.447000000000e+01      1.013150961206e-01
      1.448000000000e+01      2.718808293065e-01
      5.131000000000e+00      4.481159306152e-01
      1.898000000000e+00      2.899372621010e-01
      3.329000000000e-01      1.431283099861e-02
 s           8
      4.570000000000e+03     -2.812802240142e-04
      6.859000000000e+02     -2.219887811105e-03
      1.565000000000e+02     -1.101647150743e-02
      4.447000000000e+01     -4.434918985248e-02
      1.448000000000e+01     -1.209120479502e-01
      5.131000000000e+00     -2.807378995535e-01
      1.898000000000e+00     -2.660668087326e-01
      3.329000000000e-01      1.091784130514e+00
 s           1
      1.043000000000e-01      1.000000000000e+00
 s           1
      3.105000000000e-02      1.000000000000e+00
 p           3
      6.001000000000e+00      5.416586334015e-02
      1.241000000000e+00      3.023798901809e-01
      3.364000000000e-01      7.712922165481e-01
 p           1
      9.538000000000e-02      1.000000000000e+00
 p           1
      2.378000000000e-02      1.000000000000e+00
 d           1
      3.430000000000e-01      1.000000000000e+00
 d           1
      9.040000000000e-02      1.000000000000e+00

6
 s           8
      6.665000000000e+03      6.915839628130e-04
      1.000000000000e+03      5.325796152934e-03
      2.280000000000e+02      2.706072104203e-02
      6.471000000000e+01      1.016568461408e-01
      2.106000000000e+01      2.745748236174e-01
      7.495000000000e+00      4.482943189238e-01
      2.797000000000e+00      2.849026107152e-01
      5.215000000000e-01      1.519485920608e-02
 s           8
      6.665000000000e+03     -2.932696526865e-04
      1.000000000000e+03     -2.318035473975e-03
      2.280000000000e+02     -1.149978603857e-02
      6.471000000000e+01     -4.682672700979e-02
      2.106000000000e+01     -1.284661687505e-01
      7.495000000000e+00     -3.012662724629e-01
      2.797000000000e+00     -2.556307023301e-01
      5.215000000000e-01      1.093793361012e+00
 s           1
      1.596000000000e-01      1.000000000000e+00
 s           1
      4.690000000000e-02      1.000000000000e+00
 p           3
      9.439000000000e+00      5.697925159004e-02
      2.002000000000e+00      3.132072115007e-01
      5.456000000000e-01      7.603767417375e-01
 p           1
      1.517000000000e-01      1.000000000000e+00
 p           1
      4.041000000000e-02      1.000000000000e+00
 d           1
      5.500000000000e-01      1.000000000000e+00
 d           1
      1.510000000000e-01      1.000000000000e+00

7
 s           8
      6.665000000000e+03      6.915839628130e-04
      1.000000000000e+03      5.325796152934e-03
      2.280000000000e+02      2.706072104203e-02
      6.471000000000e+01      1.016568461408e-01
      2.106000000000e+01      2.745748236174e-01
      7.495000000000e+00      4.482943189238e-01
      2.797000000000e+00      2.849026107152e-01
      5.215000000000e-01      1.519485920608e-02
 s           8
      6.665000000000e+03     -2.932696526865e-04
      1.000000000000e+03     -2.318035473975e-03
      2.280000000000e+02     -1.149978603857e-02
      6.471000000000e+01     -4.682672700979e-02
      2.106000000000e+01     -1.284661687505e-01
      7.495000000000e+00     -3.012662724629e-01
      2.797000000000e+00     -2.556307023301e-01
      5.215000000000e-01      1.093793361012e+00
 s           1
      1.596000000000e-01      1.000000000000e+00
 s           1
      4.690000000000e-02      1.000000000000e+00
 p           3
      9.439000000000e+00      5.697925159004e-02
      2.002000000000e+00      3.132072115007e-01
      5.456000000000e-01      7.603767417375e-01
 p           1
      1.517000000000e-01      1.000000000000e+00
 p           1
      4.041000000000e-02      1.000000000000e+00
 d           1
      5.500000000000e-01      1.000000000000e+00
 d           1
      1.510000000000e-01      1.000000000000e+00

8
 s           8
      6.665000000000e+03      6.915839628130e-04
      1.000000000000e+03      5.325796152934e-03
      2.280000000000e+02      2.706072104203e-02
      6.471000000000e+01      1.016568461408e-01
      2.106000000000e+01      2.745748236174e-01
      7.495000000000e+00      4.482943189238e-01
      2.797000000000e+00      2.849026107152e-01
      5.215000000000e-01      1.519485920608e-02
 s           8
      6.665000000000e+03     -2.932696526865e-04
      1.000000000000e+03     -2.318035473975e-03
      2.280000000000e+02     -1.149978603857e-02
      6.471000000000e+01     -4.682672700979e-02
      2.106000000000e+01     -1.284661687505e-01
      7.495000000000e+00     -3.012662724629e-01
      2.797000000000e+00     -2.556307023301e-01
      5.215000000000e-01      1.093793361012e+00
 s           1
      1.596000000000e-01      1.000000000000e+00
 s           1
      4.690000000000e-02      1.000000000000e+00
 p           3
      9.439000000000e+00      5.697925159004e-02
      2.002000000000e+00      3.132072115007e-01
      5.456000000000e-01      7.603767417375e-01
 p           1
      1.517000000000e-01      1.000000000000e+00
 p           1
      4.041000000000e-02      1.000000000000e+00
 d           1
      5.500000000000e-01      1.000000000000e+00
 d           1
      1.510000000000e-01      1.000000000000e+00

9
 s           8
      6.665000000000e+03      6.915839628130e-04
      1.000000000000e+03      5.325796152934e-03
      2.280000000000e+02      2.706072104203e-02
      6.471000000000e+01      1.016568461408e-01
      2.106000000000e+01      2.745748236174e-01
      7.495000000000e+00      4.482943189238e-01
      2.797000000000e+00      2.849026107152e-01
      5.215000000000e-01      1.519485920608e-02
 s           8
      6.665000000000e+03     -2.932696526865e-04
      1.000000000000e+03     -2.318035473975e-03
      2.280000000000e+02     -1.149978603857e-02
      6.471000000000e+01     -4.682672700979e-02
      2.106000000000e+01     -1.284661687505e-01
      7.495000000000e+00     -3.012662724629e-01
      2.797000000000e+00     -2.556307023301e-01
      5.215000000000e-01      1.093793361012e+00
 s           1
      1.596000000000e-01      1.000000000000e+00
 s           1
      4.690000000000e-02      1.000000000000e+00
 p           3
      9.439000000000e+00      5.697925159004e-02
      2.002000000000e+00      3.132072115007e-01
      5.456000000000e-01      7.603767417375e-01
 p           1
      1.517000000000e-01      1.000000000000e+00
 p           1
      4.041000000000e-02      1.000000000000e+00
 d           1
      5.500000000000e-01      1.000000000000e+00
 d           1
      1.510000000000e-01      1.000000000000e+00

10
 s           8
      6.665000000000e+03      6.915839628130e-04
      1.000000000000e+03      5.325796152934e-03
      2.280000000000e+02      2.706072104203e-02
      6.471000000000e+01      1.016568461408e-01
      2.106000000000e+01      2.745748236174e-01
      7.495000000000e+00      4.482943189238e-01
      2.797000000000e+00      2.849026107152e-01
      5.215000000000e-01      1.519485920608e-02
 s           8
      6.665000000000e+03     -2.932696526865e-04
      1.000000000000e+03     -2.318035473975e-03
      2.280000000000e+02     -1.149978603857e-02
      6.471000000000e+01     -4.682672700979e-02
      2.106000000000e+01     -1.284661687505e-01
      7.495000000000e+00     -3.012662724629e-01
      2.797000000000e+00     -2.556307023301e-01
      5.215000000000e-01      1.093793361012e+00
 s           1
      1.596000000000e-01      1.000000000000e+00
 s           1
      4.690000000000e-02      1.000000000000e+00
 p           3
      9.439000000000e+00      5.697925159004e-02
      2.002000000000e+00      3.132072115007e-01
      5.456000000000e-01      7.603767417375e-01
 p           1
      1.517000000000e-01      1.000000000000e+00
 p           1
      4.041000000000e-02      1.000000000000e+00
 d           1
      5.500000000000e-01      1.000000000000e+00
 d           1
      1.510000000000e-01      1.000000000000e+00

11
 s           3
      1.301000000000e+01      3.349872639000e-02
      1.962000000000e+00      2.348008011741e-01
      4.446000000000e-01      8.136829578829e-01
 s           1
      1.220000000000e-01      1.000000000000e+00
 s           1
      2.974000000000e-02      1.000000000000e+00
 p           1
      7.270000000000e-01      1.000000000000e+00
 p           1
      1.410000000000e-01      1.000000000000e+00

12
 s           3
      1.301000000000e+01      3.349872639000e-02
      1.962000000000e+00      2.348008011741e-01
      4.446000000000e-01      8.136829578829e-01
 s           1
      1.220000000000e-01      1.000000000000e+00
 s           1
      2.974000000000e-02      1.000000000000e+00
 p           1
      7.270000000000e-01      1.000000000000e+00
 p           1
      1.410000000000e-01      1.000000000000e+00

13
 s           3
      1.301000000000e+01      3.349872639000e-02
      1.962000000000e+00      2.348008011741e-01
      4.446000000000e-01      8.136829578829e-01
 s           1
      1.220000000000e-01      1.000000000000e+00
 s           1
      2.974000000000e-02      1.000000000000e+00
 p           1
      7.270000000000e-01      1.000000000000e+00
 p           1
      1.410000000000e-01      1.000000000000e+00

14
 s           3
      1.301000000000e+01      3.349872639000e-02
      1.962000000000e+00      2.348008011741e-01
      4.446000000000e-01      8.136829578829e-01
 s           1
      1.220000000000e-01      1.000000000000e+00
 s           1
      2.974000000000e-02      1.000000000000e+00
 p           1
      7.270000000000e-01      1.000000000000e+00
 p           1
      1.410000000000e-01      1.000000000000e+00

15
 s           3
      1.301000000000e+01      3.349872639000e-02
      1.962000000000e+00      2.348008011741e-01
      4.446000000000e-01      8.136829578829e-01
 s           1
      1.220000000000e-01      1.000000000000e+00
 s           1
      2.974000000000e-02      1.000000000000e+00
 p           1
      7.270000000000e-01      1.000000000000e+00
 p           1
      1.410000000000e-01      1.000000000000e+00

16
 s           3
      1.301000000000e+01      3.349872639000e-02
      1.962000000000e+00      2.348008011741e-01
      4.446000000000e-01      8.136829578829e-01
 s           1
      1.220000000000e-01      1.000000000000e+00
 s           1
      2.974000000000e-02      1.000000000000e+00
 p           1
      7.270000000000e-01      1.000000000000e+00
 p           1
      1.410000000000e-01      1.000000000000e+00

17
 s           3
      1.301000000000e+01      3.349872639000e-02
      1.962000000000e+00      2.348008011741e-01
      4.446000000000e-01      8.136829578829e-01
 s           1
      1.220000000000e-01      1.000000000000e+00
 s           1
      2.974000000000e-02      1.000000000000e+00
 p           1
      7.270000000000e-01      1.000000000000e+00
 p           1
      1.410000000000e-01      1.000000000000e+00

18
 s           3
      1.301000000000e+01      3.349872639000e-02
      1.962000000000e+00      2.348008011741e-01
      4.446000000000e-01      8.136829578829e-01
 s           1
      1.220000000000e-01      1.000000000000e+00
 s           1
      2.974000000000e-02      1.000000000000e+00
 p           1
      7.270000000000e-01      1.000000000000e+00
 p           1
      1.410000000000e-01      1.000000000000e+00


[5D]
[7F]
[9G]
[MO]
 Ene=  -15.623927
 Spin=  Alpha
 Occup=    2.000000
   1     0.0000896222580562
   2     0.0001598302244123
   3    -0.0062091852405385
   4    -0.0068766254291197
   5    -0.0000178428452860
   6    -0.0000068258676131
   7     0.0000033427381267
   8     0.0009579125570357
   9    -0.0068004923976008
  10    -0.0008094524304474
  11     0.0035513932588094
  12     0.0033989415641449
  13     0.0012808779471893
  14    -0.0000021881100131
  15    -0.0000021612626111
  16    -0.0000150902679806
  17     0.0000290049317029
  18    -0.0000179723215743
  19     0.0002031232660334
  20     0.0004148889200661
  21     0.0002438452389611
  22     0.0006236734206417
  23     0.0015268526161359
  24     0.0000084409893170
  25     0.0000368880688977
  26    -0.0080673800572513
  27     0.0140197850856771
  28    -0.0001077450442360
  29     0.0000354438337553
  30     0.0000095166315556
  31     0.0056407840252746
  32    -0.0095260388591404
  33     0.0003447748720075
  34    -0.0056419474964336
  35     0.0025566765627967
  36    -0.0008573672125564
  37     0.0000072905865162
  38     0.0000196122098592
  39    -0.0000117602380486
  40     0.0000864451830923
  41     0.0000104251042693
  42    -0.0005954304265156
  43    -0.0003022500251982
  44     0.0012400562635159
  45    -0.0030870329805885
  46     0.0019766048979264
  47    -0.0002106687347918
  48    -0.0003309127191171
  49     0.0017136816451972
  50    -0.0276912701438627
  51     0.0002873378349527
  52     0.0001736642545173
  53     0.0001600902457871
  54     0.0145533180332515
  55     0.0028009398396692
  56     0.0034295904049883
  57    -0.0030768701558037
  58     0.0050060878498918
  59     0.0001797062036117
  60     0.0000760742769457
  61     0.0000406021895558
  62     0.0000181416943927
  63     0.0001198293467143
  64     0.0001802897772808
  65     0.0006018542357912
  66    -0.0012224919207884
  67    -0.0016838975168471
  68     0.0013305425904926
  69    -0.0062259025956214
  70    -1.0031189333613275
  71    -0.0055088881701167
  72     0.0279660745764009
  73     0.0203769713764715
  74    -0.0002166830245947
  75    -0.0008027269117185
  76     0.0005605840852266
  77     0.0010115514571022
  78     0.0050132519461081
  79    -0.0013840697576393
  80     0.0018117018229819
  81     0.0032135635175475
  82    -0.0001743913817452
  83     0.0000887917608819
  84    -0.0001862295660085
  85     0.0000123456684734
  86     0.0000024489994067
  87    -0.0000350285559947
  88    -0.0002266808308026
  89     0.0015715316779218
  90     0.0000658295962435
  91     0.0012155138735084
  92     0.0002925731202690
  93    -0.0000320939805300
  94    -0.0000993687140552
  95     0.0003155058034037
  96     0.0043228952618041
  97     0.0000368795011568
  98    -0.0002090255808648
  99     0.0000404801331104
 100    -0.0015265403963948
 101     0.0020500516248155
 102    -0.0003205049567861
 103     0.0003155782129252
 104     0.0011195536288219
 105     0.0000672670737860
 106     0.0000736920324898
 107    -0.0000653441818923
 108     0.0000582893913867
 109    -0.0001627804276894
 110     0.0000108179673874
 111    -0.0001821016984531
 112     0.0000687091313669
 113     0.0006054394683432
 114    -0.0018680054876147
 115     0.0010807072053179
 116     0.0000174206662713
 117     0.0000553784573318
 118    -0.0012973260050662
 119     0.0099769750984656
 120    -0.0000414908463238
 121     0.0000596114609955
 122    -0.0000020844244007
 123    -0.0021607161144665
 124    -0.0003010439468001
 125    -0.0004136477883194
 126     0.0027770649934074
 127     0.0016219640007014
 128     0.0008413153413482
 129    -0.0000465060413151
 130     0.0000028134757627
 131    -0.0000027795277160
 132    -0.0000172910769935
 133    -0.0000613831274532
 134     0.0002053414824400
 135    -0.0002065421988567
 136     0.0000128743855104
 137    -0.0007214111125493
 138    -0.0000914367913854
 139    -0.0000276574695626
 140    -0.0000400499961251
 141    -0.0004596666165218
 142     0.0017981748629591
 143     0.0000146920655428
 144     0.0000158034263207
 145     0.0000111376323399
 146     0.0008689323094232
 147     0.0006244846476832
 148     0.0001102646574103
 149    -0.0002895695339125
 150     0.0001083454573723
 151     0.0002773802347272
 152    -0.0000264848672290
 153     0.0000135130437962
 154     0.0000297412565634
 155    -0.0000292181167675
 156     0.0000433860719239
 157    -0.0001042672597364
 158    -0.0000444420718509
 159     0.0000389470945706
 160    -0.0009874362682454
 161    -0.0000081148982605
 162     0.0000406637210736
 163     0.0000778021596484
 164    -0.0013791334315858
 165     0.0012289020377425
 166     0.0000033369385942
 167     0.0000224477453039
 168     0.0000182682201047
 169    -0.0016927093230697
 170    -0.0029706301549008
 171    -0.0008937532293114
 172    -0.0002821433251059
 173     0.0014072078964828
 174    -0.0003166481860924
 175    -0.0000057214607506
 176     0.0000090004636310
 177     0.0000199929302222
 178     0.0000160432480105
 179     0.0000121404501512
 180     0.0001734702626066
 181    -0.0000515999200495
 182    -0.0005886091522981
 183    -0.0001612762087184
 184    -0.0012707021940544
 185    -0.0000006271459697
 186     0.0000197465716828
 187    -0.0034916617402197
 188     0.0068105489527374
 189     0.0000795548269626
 190     0.0000168821415108
 191     0.0000411833592146
 192    -0.0007490134609137
 193    -0.0045541841725184
 194     0.0005664484555949
 195     0.0023183163502004
 196     0.0013579702862052
 197     0.0006740307028779
 198    -0.0000389404384060
 199     0.0000717258200099
 200     0.0000742917728799
 201     0.0000827998425673
 202     0.0000178116031426
 203    -0.0000118527289406
 204     0.0001714114771936
 205    -0.0013094008361289
 206    -0.0001993572325260
 207    -0.0015271536287664
 208    -0.0001272932312393
 209    -0.0001716198856617
 210    -0.0059312179566347
 211    -0.0167050653322586
 212    -0.0002766371825791
 213     0.0001933714122462
 214    -0.0001564269865179
 215    -0.0085363498742759
 216     0.0043344263659782
 217    -0.0046758736730948
 218     0.0018754217100571
 219     0.0025895848798350
 220    -0.0022590253016802
 221     0.0000405378631637
 222     0.0001673591213586
 223     0.0000753091088746
 224    -0.0000622273038053
 225    -0.0001882813262327
 226    -0.0007368092744856
 227    -0.0024474030048924
 228     0.0020426790542076
 229     0.0018891412701944
 230     0.0024484280235930
 231    -0.0000076042479228
 232    -0.0008249628318771
 233    -0.0006016981080111
 234     0.0000035166173860
 235     0.0000072345729294
 236     0.0000009084092136
 237     0.0001705511717645
 238    -0.0003599007132710
 239    -0.0000712518957764
 240    -0.0000066044663804
 241     0.0013808138391296
 242     0.0008889587404654
 243    -0.0000358863387898
 244    -0.0000176028448446
 245    -0.0000194932622858
 246    -0.0005468686883072
 247    -0.0006994639899498
 248    -0.0002936720111209
 249     0.0002730710434791
 250    -0.0003378701789353
 251    -0.0021709041766116
 252    -0.0000428064463099
 253    -0.0001627859565447
 254    -0.0000465299309197
 255     0.0015716799829197
 256     0.0004449521532279
 257     0.0004370263124497
 258    -0.0000288352822972
 259    -0.0006531217080393
 260     0.0010067005922121
 261     0.0000075618599868
 262    -0.0000176731128245
 263    -0.0000006584245891
 264     0.0002708755381159
 265     0.0000117840016433
 266    -0.0000111779432326
 267    -0.0000319215283534
 268    -0.0016055650372980
 269     0.0007272798891890
 270     0.0000170941481269
 271     0.0000015068936916
 272     0.0000030071248054
 273    -0.0003601704568856
 274    -0.0002255518231614
 275    -0.0002676465744779
 276    -0.0000037926582318
 277    -0.0008969022779693
 278     0.0003958353958310
 279    -0.0000219621727158
 280    -0.0000016831773964
 281     0.0000065364457749
 282    -0.0002922315301437
 283    -0.0003757259160183
 284    -0.0000594703646122
 285     0.0000142894263706
 286     0.0005282877034744
 287     0.0001808945869112
 288     0.0000188311640950
 289     0.0000055675046310
 290     0.0000275671998261
 291     0.0004833446080064
 292    -0.0000335448745293
 293     0.0002895470601416
 294     0.0002870551710609
 295     0.0000873076984460
 296    -0.0016186723666628
 297    -0.0000081094747324
 298    -0.0001094367422342
 299     0.0001701453457868
 300    -0.0010782108958258
 301     0.0002894000055778
 302     0.0000393694492262
 Ene=  -11.297963
 Spin=  Alpha
 Occup=    2.000000
   1    -0.0000142386861877
   2    -0.0000221322573766
   3     0.0019747299811186
   4     0.0022830785065688
   5    -0.0000183647881403
   6    -0.0000084140875198
   7    -0.0000130276216497
   8     0.0003671524341933
   9     0.0010791255766187
  10     0.0003694091802711
  11     0.0018958860158160
  12     0.0028251913580041
  13     0.0008388784784371
  14     0.0000140712518781
  15     0.0000041808046240
  16     0.0000296056837960
  17    -0.0000346222524619
  18     0.0000281034200591
  19    -0.0002639473708368
  20    -0.0002606671562673
  21    -0.0002075031824289
  22     0.0000277221493307
  23     0.0000388825551961
  24    -0.0000765305452481
  25    -0.0001189457237479
  26     0.0026058530977178
  27     0.0091317049647401
  28     0.0000155925824038
  29    -0.0000197054924309
  30     0.0000114789053895
  31    -0.0025789238657603
  32     0.0020240930204334
  33    -0.0019865282321059
  34    -0.0039053582141009
  35     0.0045341138816270
  36    -0.0000927924754843
  37     0.0000103929857543
  38     0.0000577831674261
  39    -0.0000208641068167
  40     0.0000282790275957
  41     0.0000173695521791
  42     0.0000595398357933
  43     0.0011415901727977
  44    -0.0006619991765008
  45     0.0008658123324108
  46    -0.0001572588945337
  47    -0.0008463860895591
  48    -0.0002134417178050
  49    -0.0044314726321365
  50    -0.0132199008000717
  51     0.0001142093364047
  52     0.0000312443187194
  53    -0.0000324077971814
  54    -0.0035284684326031
  55     0.0012606478112510
  56     0.0000711099605552
  57    -0.0067697301273254
  58     0.0016659525087537
  59    -0.0014789726739004
  60    -0.0000404496701571
  61     0.0000977375450671
  62    -0.0000101111139464
  63     0.0000511403891397
  64     0.0000466053653353
  65     0.0006696942848939
  66     0.0017372943199437
  67    -0.0009362894867248
  68     0.0001480799098520
  69     0.0008239498573948
  70     0.0001674765403452
  71     0.0006762074913330
  72    -0.0036213657857550
  73     0.0062660767200358
  74    -0.0001371542870207
  75     0.0001581272641734
  76    -0.0004666976868411
  77     0.0018524687377870
  78    -0.0018527581391634
  79     0.0013887290247451
  80     0.0012031614413107
  81    -0.0012188682320712
  82     0.0000502670368089
  83     0.0000596337069902
  84    -0.0001237972740562
  85     0.0000762637551382
  86    -0.0000030502878174
  87     0.0000004885937451
  88    -0.0004012877015608
  89    -0.0007900249930891
  90     0.0007132637404272
  91    -0.0001894909860011
  92     0.0009273796299615
  93    -0.0003261901135932
  94    -0.0005099235644997
  95     0.0005919036035791
  96     0.0038551258001771
  97     0.0000475204492590