[Molden Format]
[Atoms] Angs
 c       1                    6  2.325348798254e+00 -6.106305392029e-01  9.703359898433e-01
 c       2                    6  2.182882960044e+00  8.177903077940e-01  9.407377720098e-01
 c       3                    6  1.051721449357e+00  1.412200522350e+00  3.830386448426e-01
 n       4                    7  9.945270995943e-02  5.700077642229e-01 -8.246146931197e-02
 b       5                    5  1.143451356599e-01 -8.740346897956e-01 -6.710887369784e-02
 c       6                    6  1.355162169022e+00 -1.513982611570e+00  5.066997979448e-01
 c       7                    6 -1.238931230601e+00 -9.272050031879e-01 -9.598179893080e-01
 c       8                    6 -2.585067319719e+00 -6.313111074902e-01 -2.912873941324e-01
 c       9                    6 -2.443249604015e+00  7.254762043785e-01 -2.929631540300e-01
 c      10                    6 -1.083899497347e+00  6.613564193002e-01 -9.764466777797e-01
 h      11                    1  3.280993191816e+00 -9.974777479756e-01  1.347653709073e+00
 h      12                    1  2.978671728929e+00  1.455597413375e+00  1.331479495241e+00
 h      13                    1  9.177496717217e-01  2.495406395207e+00  2.929942436508e-01
 h      14                    1  1.587983488330e+00 -2.582681045048e+00  5.519780462976e-01
 h      15                    1 -1.245222261809e+00 -1.474814427391e+00 -1.912094801292e+00
 h      16                    1 -3.371426078848e+00 -1.293440322890e+00  7.884648903878e-02
 h      17                    1 -3.037423324744e+00  1.558855433092e+00  8.828923885491e-02
 h      18                    1 -8.890919860111e-01  1.208887034834e+00 -1.909873067243e+00
[GTO]
1
 s           8
      6.665000000000e+03      6.915839628130e-04
      1.000000000000e+03      5.325796152934e-03
      2.280000000000e+02      2.706072104203e-02
      6.471000000000e+01      1.016568461408e-01
      2.106000000000e+01      2.745748236174e-01
      7.495000000000e+00      4.482943189238e-01
      2.797000000000e+00      2.849026107152e-01
      5.215000000000e-01      1.519485920608e-02
 s           8
      6.665000000000e+03     -2.932696526865e-04
      1.000000000000e+03     -2.318035473975e-03
      2.280000000000e+02     -1.149978603857e-02
      6.471000000000e+01     -4.682672700979e-02
      2.106000000000e+01     -1.284661687505e-01
      7.495000000000e+00     -3.012662724629e-01
      2.797000000000e+00     -2.556307023301e-01
      5.215000000000e-01      1.093793361012e+00
 s           1
      1.596000000000e-01      1.000000000000e+00
 s           1
      4.690000000000e-02      1.000000000000e+00
 p           3
      9.439000000000e+00      5.697925159004e-02
      2.002000000000e+00      3.132072115007e-01
      5.456000000000e-01      7.603767417375e-01
 p           1
      1.517000000000e-01      1.000000000000e+00
 p           1
      4.041000000000e-02      1.000000000000e+00
 d           1
      5.500000000000e-01      1.000000000000e+00
 d           1
      1.510000000000e-01      1.000000000000e+00

2
 s           8
      6.665000000000e+03      6.915839628130e-04
      1.000000000000e+03      5.325796152934e-03
      2.280000000000e+02      2.706072104203e-02
      6.471000000000e+01      1.016568461408e-01
      2.106000000000e+01      2.745748236174e-01
      7.495000000000e+00      4.482943189238e-01
      2.797000000000e+00      2.849026107152e-01
      5.215000000000e-01      1.519485920608e-02
 s           8
      6.665000000000e+03     -2.932696526865e-04
      1.000000000000e+03     -2.318035473975e-03
      2.280000000000e+02     -1.149978603857e-02
      6.471000000000e+01     -4.682672700979e-02
      2.106000000000e+01     -1.284661687505e-01
      7.495000000000e+00     -3.012662724629e-01
      2.797000000000e+00     -2.556307023301e-01
      5.215000000000e-01      1.093793361012e+00
 s           1
      1.596000000000e-01      1.000000000000e+00
 s           1
      4.690000000000e-02      1.000000000000e+00
 p           3
      9.439000000000e+00      5.697925159004e-02
      2.002000000000e+00      3.132072115007e-01
      5.456000000000e-01      7.603767417375e-01
 p           1
      1.517000000000e-01      1.000000000000e+00
 p           1
      4.041000000000e-02      1.000000000000e+00
 d           1
      5.500000000000e-01      1.000000000000e+00
 d           1
      1.510000000000e-01      1.000000000000e+00

3
 s           8
      6.665000000000e+03      6.915839628130e-04
      1.000000000000e+03      5.325796152934e-03
      2.280000000000e+02      2.706072104203e-02
      6.471000000000e+01      1.016568461408e-01
      2.106000000000e+01      2.745748236174e-01
      7.495000000000e+00      4.482943189238e-01
      2.797000000000e+00      2.849026107152e-01
      5.215000000000e-01      1.519485920608e-02
 s           8
      6.665000000000e+03     -2.932696526865e-04
      1.000000000000e+03     -2.318035473975e-03
      2.280000000000e+02     -1.149978603857e-02
      6.471000000000e+01     -4.682672700979e-02
      2.106000000000e+01     -1.284661687505e-01
      7.495000000000e+00     -3.012662724629e-01
      2.797000000000e+00     -2.556307023301e-01
      5.215000000000e-01      1.093793361012e+00
 s           1
      1.596000000000e-01      1.000000000000e+00
 s           1
      4.690000000000e-02      1.000000000000e+00
 p           3
      9.439000000000e+00      5.697925159004e-02
      2.002000000000e+00      3.132072115007e-01
      5.456000000000e-01      7.603767417375e-01
 p           1
      1.517000000000e-01      1.000000000000e+00
 p           1
      4.041000000000e-02      1.000000000000e+00
 d           1
      5.500000000000e-01      1.000000000000e+00
 d           1
      1.510000000000e-01      1.000000000000e+00

4
 s           8
      9.046000000000e+03      6.996174134255e-04
      1.357000000000e+03      5.386054629929e-03
      3.093000000000e+02      2.739102118906e-02
      8.773000000000e+01      1.031505919820e-01
      2.856000000000e+01      2.785706633174e-01
      1.021000000000e+01      4.482948494541e-01
      3.838000000000e+00      2.780859283953e-01
      7.466000000000e-01      1.543156123327e-02
 s           8
      9.046000000000e+03     -3.049900959534e-04
      1.357000000000e+03     -2.408026378508e-03
      3.093000000000e+02     -1.194444872518e-02
      8.773000000000e+01     -4.892599290902e-02
      2.856000000000e+01     -1.344727247250e-01
      1.021000000000e+01     -3.151125777001e-01
      3.838000000000e+00     -2.428578325496e-01
      7.466000000000e-01      1.094382206854e+00
 s           1
      2.248000000000e-01      1.000000000000e+00
 s           1
      6.124000000000e-02      1.000000000000e+00
 p           3
      1.355000000000e+01      5.890567677213e-02
      2.917000000000e+00      3.204611067143e-01
      7.973000000000e-01      7.530420617921e-01
 p           1
      2.185000000000e-01      1.000000000000e+00
 p           1
      5.611000000000e-02      1.000000000000e+00
 d           1
      8.170000000000e-01      1.000000000000e+00
 d           1
      2.300000000000e-01      1.000000000000e+00

5
 s           8
      4.570000000000e+03      6.955544180306e-04
      6.859000000000e+02      5.349572988100e-03
      1.565000000000e+02      2.711662870523e-02
      4.447000000000e+01      1.013150961206e-01
      1.448000000000e+01      2.718808293065e-01
      5.131000000000e+00      4.481159306152e-01
      1.898000000000e+00      2.899372621010e-01
      3.329000000000e-01      1.431283099861e-02
 s           8
      4.570000000000e+03     -2.812802240142e-04
      6.859000000000e+02     -2.219887811105e-03
      1.565000000000e+02     -1.101647150743e-02
      4.447000000000e+01     -4.434918985248e-02
      1.448000000000e+01     -1.209120479502e-01
      5.131000000000e+00     -2.807378995535e-01
      1.898000000000e+00     -2.660668087326e-01
      3.329000000000e-01      1.091784130514e+00
 s           1
      1.043000000000e-01      1.000000000000e+00
 s           1
      3.105000000000e-02      1.000000000000e+00
 p           3
      6.001000000000e+00      5.416586334015e-02
      1.241000000000e+00      3.023798901809e-01
      3.364000000000e-01      7.712922165481e-01
 p           1
      9.538000000000e-02      1.000000000000e+00
 p           1
      2.378000000000e-02      1.000000000000e+00
 d           1
      3.430000000000e-01      1.000000000000e+00
 d           1
      9.040000000000e-02      1.000000000000e+00

6
 s           8
      6.665000000000e+03      6.915839628130e-04
      1.000000000000e+03      5.325796152934e-03
      2.280000000000e+02      2.706072104203e-02
      6.471000000000e+01      1.016568461408e-01
      2.106000000000e+01      2.745748236174e-01
      7.495000000000e+00      4.482943189238e-01
      2.797000000000e+00      2.849026107152e-01
      5.215000000000e-01      1.519485920608e-02
 s           8
      6.665000000000e+03     -2.932696526865e-04
      1.000000000000e+03     -2.318035473975e-03
      2.280000000000e+02     -1.149978603857e-02
      6.471000000000e+01     -4.682672700979e-02
      2.106000000000e+01     -1.284661687505e-01
      7.495000000000e+00     -3.012662724629e-01
      2.797000000000e+00     -2.556307023301e-01
      5.215000000000e-01      1.093793361012e+00
 s           1
      1.596000000000e-01      1.000000000000e+00
 s           1
      4.690000000000e-02      1.000000000000e+00
 p           3
      9.439000000000e+00      5.697925159004e-02
      2.002000000000e+00      3.132072115007e-01
      5.456000000000e-01      7.603767417375e-01
 p           1
      1.517000000000e-01      1.000000000000e+00
 p           1
      4.041000000000e-02      1.000000000000e+00
 d           1
      5.500000000000e-01      1.000000000000e+00
 d           1
      1.510000000000e-01      1.000000000000e+00

7
 s           8
      6.665000000000e+03      6.915839628130e-04
      1.000000000000e+03      5.325796152934e-03
      2.280000000000e+02      2.706072104203e-02
      6.471000000000e+01      1.016568461408e-01
      2.106000000000e+01      2.745748236174e-01
      7.495000000000e+00      4.482943189238e-01
      2.797000000000e+00      2.849026107152e-01
      5.215000000000e-01      1.519485920608e-02
 s           8
      6.665000000000e+03     -2.932696526865e-04
      1.000000000000e+03     -2.318035473975e-03
      2.280000000000e+02     -1.149978603857e-02
      6.471000000000e+01     -4.682672700979e-02
      2.106000000000e+01     -1.284661687505e-01
      7.495000000000e+00     -3.012662724629e-01
      2.797000000000e+00     -2.556307023301e-01
      5.215000000000e-01      1.093793361012e+00
 s           1
      1.596000000000e-01      1.000000000000e+00
 s           1
      4.690000000000e-02      1.000000000000e+00
 p           3
      9.439000000000e+00      5.697925159004e-02
      2.002000000000e+00      3.132072115007e-01
      5.456000000000e-01      7.603767417375e-01
 p           1
      1.517000000000e-01      1.000000000000e+00
 p           1
      4.041000000000e-02      1.000000000000e+00
 d           1
      5.500000000000e-01      1.000000000000e+00
 d           1
      1.510000000000e-01      1.000000000000e+00

8
 s           8
      6.665000000000e+03      6.915839628130e-04
      1.000000000000e+03      5.325796152934e-03
      2.280000000000e+02      2.706072104203e-02
      6.471000000000e+01      1.016568461408e-01
      2.106000000000e+01      2.745748236174e-01
      7.495000000000e+00      4.482943189238e-01
      2.797000000000e+00      2.849026107152e-01
      5.215000000000e-01      1.519485920608e-02
 s           8
      6.665000000000e+03     -2.932696526865e-04
      1.000000000000e+03     -2.318035473975e-03
      2.280000000000e+02     -1.149978603857e-02
      6.471000000000e+01     -4.682672700979e-02
      2.106000000000e+01     -1.284661687505e-01
      7.495000000000e+00     -3.012662724629e-01
      2.797000000000e+00     -2.556307023301e-01
      5.215000000000e-01      1.093793361012e+00
 s           1
      1.596000000000e-01      1.000000000000e+00
 s           1
      4.690000000000e-02      1.000000000000e+00
 p           3
      9.439000000000e+00      5.697925159004e-02
      2.002000000000e+00      3.132072115007e-01
      5.456000000000e-01      7.603767417375e-01
 p           1
      1.517000000000e-01      1.000000000000e+00
 p           1
      4.041000000000e-02      1.000000000000e+00
 d           1
      5.500000000000e-01      1.000000000000e+00
 d           1
      1.510000000000e-01      1.000000000000e+00

9
 s           8
      6.665000000000e+03      6.915839628130e-04
      1.000000000000e+03      5.325796152934e-03
      2.280000000000e+02      2.706072104203e-02
      6.471000000000e+01      1.016568461408e-01
      2.106000000000e+01      2.745748236174e-01
      7.495000000000e+00      4.482943189238e-01
      2.797000000000e+00      2.849026107152e-01
      5.215000000000e-01      1.519485920608e-02
 s           8
      6.665000000000e+03     -2.932696526865e-04
      1.000000000000e+03     -2.318035473975e-03
      2.280000000000e+02     -1.149978603857e-02
      6.471000000000e+01     -4.682672700979e-02
      2.106000000000e+01     -1.284661687505e-01
      7.495000000000e+00     -3.012662724629e-01
      2.797000000000e+00     -2.556307023301e-01
      5.215000000000e-01      1.093793361012e+00
 s           1
      1.596000000000e-01      1.000000000000e+00
 s           1
      4.690000000000e-02      1.000000000000e+00
 p           3
      9.439000000000e+00      5.697925159004e-02
      2.002000000000e+00      3.132072115007e-01
      5.456000000000e-01      7.603767417375e-01
 p           1
      1.517000000000e-01      1.000000000000e+00
 p           1
      4.041000000000e-02      1.000000000000e+00
 d           1
      5.500000000000e-01      1.000000000000e+00
 d           1
      1.510000000000e-01      1.000000000000e+00

10
 s           8
      6.665000000000e+03      6.915839628130e-04
      1.000000000000e+03      5.325796152934e-03
      2.280000000000e+02      2.706072104203e-02
      6.471000000000e+01      1.016568461408e-01
      2.106000000000e+01      2.745748236174e-01
      7.495000000000e+00      4.482943189238e-01
      2.797000000000e+00      2.849026107152e-01
      5.215000000000e-01      1.519485920608e-02
 s           8
      6.665000000000e+03     -2.932696526865e-04
      1.000000000000e+03     -2.318035473975e-03
      2.280000000000e+02     -1.149978603857e-02
      6.471000000000e+01     -4.682672700979e-02
      2.106000000000e+01     -1.284661687505e-01
      7.495000000000e+00     -3.012662724629e-01
      2.797000000000e+00     -2.556307023301e-01
      5.215000000000e-01      1.093793361012e+00
 s           1
      1.596000000000e-01      1.000000000000e+00
 s           1
      4.690000000000e-02      1.000000000000e+00
 p           3
      9.439000000000e+00      5.697925159004e-02
      2.002000000000e+00      3.132072115007e-01
      5.456000000000e-01      7.603767417375e-01
 p           1
      1.517000000000e-01      1.000000000000e+00
 p           1
      4.041000000000e-02      1.000000000000e+00
 d           1
      5.500000000000e-01      1.000000000000e+00
 d           1
      1.510000000000e-01      1.000000000000e+00

11
 s           3
      1.301000000000e+01      3.349872639000e-02
      1.962000000000e+00      2.348008011741e-01
      4.446000000000e-01      8.136829578829e-01
 s           1
      1.220000000000e-01      1.000000000000e+00
 s           1
      2.974000000000e-02      1.000000000000e+00
 p           1
      7.270000000000e-01      1.000000000000e+00
 p           1
      1.410000000000e-01      1.000000000000e+00

12
 s           3
      1.301000000000e+01      3.349872639000e-02
      1.962000000000e+00      2.348008011741e-01
      4.446000000000e-01      8.136829578829e-01
 s           1
      1.220000000000e-01      1.000000000000e+00
 s           1
      2.974000000000e-02      1.000000000000e+00
 p           1
      7.270000000000e-01      1.000000000000e+00
 p           1
      1.410000000000e-01      1.000000000000e+00

13
 s           3
      1.301000000000e+01      3.349872639000e-02
      1.962000000000e+00      2.348008011741e-01
      4.446000000000e-01      8.136829578829e-01
 s           1
      1.220000000000e-01      1.000000000000e+00
 s           1
      2.974000000000e-02      1.000000000000e+00
 p           1
      7.270000000000e-01      1.000000000000e+00
 p           1
      1.410000000000e-01      1.000000000000e+00

14
 s           3
      1.301000000000e+01      3.349872639000e-02
      1.962000000000e+00      2.348008011741e-01
      4.446000000000e-01      8.136829578829e-01
 s           1
      1.220000000000e-01      1.000000000000e+00
 s           1
      2.974000000000e-02      1.000000000000e+00
 p           1
      7.270000000000e-01      1.000000000000e+00
 p           1
      1.410000000000e-01      1.000000000000e+00

15
 s           3
      1.301000000000e+01      3.349872639000e-02
      1.962000000000e+00      2.348008011741e-01
      4.446000000000e-01      8.136829578829e-01
 s           1
      1.220000000000e-01      1.000000000000e+00
 s           1
      2.974000000000e-02      1.000000000000e+00
 p           1
      7.270000000000e-01      1.000000000000e+00
 p           1
      1.410000000000e-01      1.000000000000e+00

16
 s           3
      1.301000000000e+01      3.349872639000e-02
      1.962000000000e+00      2.348008011741e-01
      4.446000000000e-01      8.136829578829e-01
 s           1
      1.220000000000e-01      1.000000000000e+00
 s           1
      2.974000000000e-02      1.000000000000e+00
 p           1
      7.270000000000e-01      1.000000000000e+00
 p           1
      1.410000000000e-01      1.000000000000e+00

17
 s           3
      1.301000000000e+01      3.349872639000e-02
      1.962000000000e+00      2.348008011741e-01
      4.446000000000e-01      8.136829578829e-01
 s           1
      1.220000000000e-01      1.000000000000e+00
 s           1
      2.974000000000e-02      1.000000000000e+00
 p           1
      7.270000000000e-01      1.000000000000e+00
 p           1
      1.410000000000e-01      1.000000000000e+00

18
 s           3
      1.301000000000e+01      3.349872639000e-02
      1.962000000000e+00      2.348008011741e-01
      4.446000000000e-01      8.136829578829e-01
 s           1
      1.220000000000e-01      1.000000000000e+00
 s           1
      2.974000000000e-02      1.000000000000e+00
 p           1
      7.270000000000e-01      1.000000000000e+00
 p           1
      1.410000000000e-01      1.000000000000e+00


[5D]
[7F]
[9G]
[MO]
 Ene=  -15.596120
 Spin=  Alpha
 Occup=    2.000000
   1    -0.0000394704627582
   2    -0.0000776198807314
   3     0.0018810499953311
   4     0.0076450139654202
   5     0.0000177405113079
   6    -0.0000129774664181
   7     0.0000051822388114
   8    -0.0001105955824976
   9     0.0045273527776862
  10     0.0000194842942946
  11    -0.0031867293646319
  12    -0.0043742432558784
  13    -0.0014955572702568
  14     0.0000124876742960
  15    -0.0000257462309219
  16     0.0000174173515124
  17    -0.0000220906338582
  18     0.0000346391938327
  19    -0.0001528047261714
  20    -0.0000121084694954
  21    -0.0006049394135173
  22    -0.0002594701375766
  23    -0.0013019963519765
  24    -0.0000217540171322
  25    -0.0000564824057612
  26     0.0032174869129691
  27    -0.0086704685647131
  28     0.0001217370568374
  29    -0.0000297462252156
  30     0.0000446544922211
  31    -0.0008988608827634
  32     0.0056212660765891
  33    -0.0005041601324164
  34     0.0043930555830134
  35    -0.0020039553117343
  36     0.0019856844068704
  37    -0.0000285358946543
  38    -0.0000258363650659
  39     0.0000198671469659
  40    -0.0000857564035912
  41     0.0000366771527204
  42     0.0005835851101940
  43     0.0001531829553553
  44    -0.0006151257051557
  45     0.0012028036359146
  46    -0.0010690239765904
  47     0.0003476476828044
  48     0.0005239516755059
  49     0.0052200931227457
  50     0.0225098564006307
  51    -0.0002741628419540
  52    -0.0002330057816735
  53    -0.0001596152406908
  54    -0.0080849384976098
  55    -0.0058638522487798
  56    -0.0038168340484209
  57     0.0015128938515342
  58    -0.0039474837542884
  59     0.0007979350543454
  60    -0.0000437246802975
  61    -0.0000829882737312
  62    -0.0001647180756028
  63    -0.0001434731065467
  64    -0.0003033749882202
  65    -0.0010380288786197
  66     0.0002735194523839
  67     0.0018000145912082
  68    -0.0014938147578793
  69     0.0038265989174723
  70     1.0031747872487216
  71     0.0056277581139630
  72    -0.0261681725860514
  73    -0.0101681938476849
  74     0.0001017515252078
  75     0.0006664937247036
  76    -0.0001920711017765
  77     0.0011035505616134
  78    -0.0027781332107309
  79     0.0010355010945594
  80    -0.0019467577093737
  81    -0.0035074158723633
  82    -0.0008047957295338
  83    -0.0001615592272513
  84     0.0001788553628139
  85     0.0001415831952642
  86    -0.0000126431622968
  87     0.0002404278490615
  88     0.0005710158542841
  89    -0.0021677205936245
  90    -0.0010740435792044
  91    -0.0016528486889028
  92    -0.0017546580363894
  93     0.0001742354764271
  94     0.0003356594602331
  95    -0.0013700384334878
  96    -0.0039889735173276
  97    -0.0000939018901540
  98     0.0002603586033554
  99    -0.0001009742503742
 100     0.0007945673275254
 101    -0.0032931900540012
 102    -0.0000826127224017
 103    -0.0001347137981559
 104    -0.0001069677673301
 105     0.0000687859708482
 106    -0.0000217119765025
 107     0.0000577060492037
 108    -0.0001126741671906
 109     0.0000372541363257
 110    -0.0001637232407046
 111     0.0002589617127207
 112     0.0013496498882279
 113    -0.0010641890535867
 114     0.0020758188775214
 115    -0.0019623674320331
 116     0.0000166766827163
 117     0.0000077926814555
 118     0.0005886608746291
 119    -0.0117246059785499
 120     0.0000250250468463
 121    -0.0000445957250837
 122     0.0000025779153452
 123     0.0022500251755637
 124     0.0007938908019989
 125     0.0009928276032130
 126    -0.0027468562126779
 127    -0.0019371138939366
 128    -0.0014624037953340
 129     0.0000505048398870
 130    -0.0000355841232272
 131     0.0000165615814559
 132     0.0000067318551764
 133     0.0000502648071224
 134    -0.0001377896004108
 135     0.0003783590067339
 136     0.0002348258373512
 137     0.0004864301161627
 138     0.0003894638189940
 139    -0.0000222856481502
 140    -0.0000254512698166
 141    -0.0033664596692077
 142     0.0072599124049438
 143    -0.0000383025369536
 144    -0.0001061039511068
 145     0.0000346781676660
 146    -0.0014913313738418
 147    -0.0020473892210861
 148    -0.0017361708277334
 149     0.0000259092661263
 150     0.0012582676590043
 151     0.0009925327996374
 152    -0.0000305257319129
 153     0.0000612921304252
 154     0.0000063374010193
 155     0.0000562843771594
 156     0.0000297148451038
 157     0.0001786458968491
 158     0.0000680637818151
 159    -0.0004909181516004
 160    -0.0000011410077284
 161    -0.0008533356399109
 162     0.0001246279085795
 163     0.0002049884215602
 164    -0.0036020626508617
 165    -0.0027181487411667
 166     0.0000582923150081
 167    -0.0000315220447419
 168    -0.0000288447697301
 169    -0.0003502036499810
 170    -0.0028078301707824
 171     0.0005468254868722
 172    -0.0009622964609225
 173    -0.0003158471437922
 174     0.0002084297070463
 175     0.0000710495896220
 176     0.0000013095632947
 177    -0.0000219556638401
 178     0.0000006884448811
 179    -0.0000601914422104
 180     0.0000760017823703
 181    -0.0001772388093922
 182     0.0001703779373789
 183     0.0006026345661090
 184     0.0001569766632951
 185     0.0000201300384733
 186     0.0000156229149982
 187     0.0044896374999988
 188     0.0010628000002181
 189    -0.0000269693593721
 190     0.0000070649867599
 191    -0.0000296705270197
 192    -0.0006422195664273
 193    -0.0029168617988613
 194    -0.0009625293897535
 195     0.0001333305153946
 196    -0.0000932768673832
 197    -0.0000570169904591
 198     0.0000988651379789
 199     0.0000053470599280
 200    -0.0000246817925981
 201    -0.0001649814264119
 202     0.0000571973161958
 203    -0.0002384645609807
 204    -0.0000364496331977
 205     0.0004784821178234
 206    -0.0011850738109202
 207     0.0004565811617905
 208    -0.0001756240142307
 209    -0.0002769941033801
 210     0.0094129064077899
 211    -0.0028308439907441
 212     0.0003296600319861
 213     0.0000751583295279
 214     0.0002578006732564
 215     0.0071318698699218
 216    -0.0038939052415630
 217     0.0071715158551293
 218     0.0002938166297571
 219     0.0010210298832789
 220     0.0006617788597829
 221     0.0000373980639549
 222     0.0000117024534702
 223    -0.0000911725493861
 224     0.0001538410979032
 225     0.0000370692265414
 226     0.0005536387583152
 227     0.0035903129954415
 228    -0.0014646715172147
 229    -0.0003552313143184
 230    -0.0020136842282666
 231     0.0000094222350144
 232    -0.0002366227202718
 233     0.0004116720408067
 234    -0.0000205568541690
 235     0.0000010176413058
 236    -0.0000102996060376
 237     0.0000641936965674
 238     0.0002930762543457
 239     0.0000252632661559
 240    -0.0000451577473870
 241    -0.0020784164407530
 242    -0.0004655622929192
 243     0.0000385054581465
 244     0.0000057449702814
 245     0.0000191197112046
 246     0.0006667175039528
 247     0.0005120854976429
 248     0.0003800622932933
 249    -0.0003190773125683
 250     0.0012645478481731
 251     0.0013092658585257
 252     0.0000453806775059
 253     0.0002000994717545
 254     0.0000229630285598
 255    -0.0011012376301237
 256    -0.0007258801778900
 257    -0.0005295037725153
 258     0.0000627302745703
 259     0.0002510769205979
 260    -0.0005905079002277
 261    -0.0000121097831076
 262     0.0000209871899179
 263    -0.0000017853762060
 264    -0.0000912798019275
 265    -0.0001422485079752
 266     0.0000172428930320
 267     0.0000466610752282
 268    -0.0022629355732734
 269     0.0008862296608980
 270     0.0000433451667527
 271     0.0000288111211657
 272     0.0000177471907816
 273     0.0000370326409819
 274    -0.0003513780114089
 275    -0.0004461150383204
 276     0.0000069658492256
 277    -0.0017723341896282
 278    -0.0004129758898636
 279     0.0000290127764301
 280     0.0000193603247971
 281    -0.0000297484206357
 282    -0.0003549531689994
 283    -0.0003127889192714
 284     0.0001702210020065
 285    -0.0000270806641773
 286     0.0013810789083808
 287    -0.0001456000202102
 288    -0.0000114285315143
 289    -0.0000325951123927
 290    -0.0000254717494165
 291     0.0001859747493370
 292    -0.0005549219655739
 293    -0.0002690466688622
 294    -0.0001709954680135
 295     0.0033215925286555
 296     0.0002857778284499
 297    -0.0000162141197456
 298     0.0000516501762603
 299    -0.0001512125506876
 300     0.0008865673645249
 301    -0.0005199433622053
 302     0.0006883521715488
 Ene=  -11.286060
 Spin=  Alpha
 Occup=    2.000000
   1    -0.0002852691670153
   2    -0.0004222224610268
   3     0.0142048005571528
   4     0.0033141569012251
   5    -0.0000079053844769
   6    -0.0000454305313642
   7    -0.0000062992652856
   8     0.0024921136297140
   9     0.0195631502995895
  10     0.0017975404541547
  11     0.0017321770294998
  12     0.0051778392450160
  13     0.0009109974751594
  14    -0.0001103109107168
  15     0.0000670769234252
  16    -0.0000336813219183
  17    -0.0000428210551686
  18    -0.0000972847965509
  19    -0.0008058454334637
  20    -0.0013944961733737
  21    -0.0010743554193886
  22    -0.0036772719661244
  23    -0.0025262051434631
  24     0.0117444529256279
  25     0.0000919414339016
  26     0.0120764623353669
  27     0.0073514955131245
  28    -0.0001121953550719
  29     0.0000109081638852
  30    -0.0000576480325952
  31    -0.0203216660581428
  32     0.0226045698457554
  33    -0.0093029920495856
  34    -0.0055063422246940
  35     0.0047617215051189
  36    -0.0024619102331848
  37     0.0000957383636693
  38    -0.0000437384007018
  39    -0.0000136262975574
  40     0.0001145341883031
  41    -0.0000095819644631
  42     0.0014568521599950
  43     0.0034759312807742
  44    -0.0013593248211691
  45     0.0081935567604712
  46    -0.0024956777775701
  47     0.9742017543163310
  48     0.0080076322187193
  49    -0.0412290823110797
  50    -0.0155218171016030
  51    -0.0009028460672035
  52    -0.0006459532945815
  53    -0.0004342957999367
  54    -0.0218549584405080
  55     0.0047658444055599
  56    -0.0108587769366404
  57    -0.0055266015038775
  58     0.0012435987980855
  59    -0.0028441225258303
  60    -0.0004048054008798
  61     0.0004193344821001
  62     0.0000674220360393
  63    -0.0000385250621025
  64     0.0001587063445904
  65     0.0013459847886568
  66    -0.0020827122162934
  67     0.0039732688410884
  68    -0.0003838181803415
  69     0.0074794218589483
  70     0.0001896727808832
  71     0.0007266041311601
  72    -0.0047157944790681
  73    -0.0023122373482502
  74     0.0003474973102736
  75     0.0002371563202129
  76     0.0001823523665346
  77    -0.0044040633522513
  78    -0.0030522657840486
  79    -0.0024525623970062
  80    -0.0020557853814682
  81    -0.0062184205503862
  82    -0.0016591000905927
  83     0.0000763768257556
  84    -0.0000823326333667
  85     0.0000348160306352
  86    -0.0000030684555185
  87     0.0000360020255938
  88     0.0005963499573479
  89     0.0000940607493243
  90    -0.0016328951312682
  91     0.0006465616355350
  92    -0.0029882130327221
  93     0.0000801511684439
  94     0.0001200139744066
  95    -0.0038971078383549
  96     0.0021921800769321
  97    -0.0000863721153776