[Molden Format]
[Atoms] Angs
 c       1                    6  2.396739732143e+00 -5.770350671309e-01  7.231850189385e-01
 c       2                    6  2.209336578608e+00  8.431763488624e-01  9.163270340087e-01
 c       3                    6  9.745656978130e-01  1.432391916458e+00  6.642986552281e-01
 n       4                    7 -8.070522366116e-02  6.104406952806e-01  3.717481265482e-01
 b       5                    5 -2.324111771983e-02 -8.397181780729e-01  3.429055294331e-01
 c       6                    6  1.346675036875e+00 -1.469935900854e+00  4.987800226433e-01
 c       7                    6 -1.274789853719e+00 -1.023734569744e+00 -6.383306908338e-01
 c       8                    6 -2.715842353750e+00 -5.754522760626e-01 -4.264981616341e-01
 c       9                    6 -2.479032140328e+00  7.708396544992e-01 -5.532200772857e-01
 c      10                    6 -1.008555376526e+00  5.658928871249e-01 -8.118227922861e-01
 h      11                    1  3.437021468013e+00 -9.356045751056e-01  6.954990042705e-01
 h      12                    1  3.071637010657e+00  1.476581251181e+00  1.139873303403e+00
 h      13                    1  8.270346099445e-01  2.522416924356e+00  6.717721945269e-01
 h      14                    1  1.582199812970e+00 -2.511993798597e+00  2.609894362466e-01
 h      15                    1 -1.070569443152e+00 -1.727785297214e+00 -1.452241152450e+00
 h      16                    1 -3.636737283171e+00 -1.155632502149e+00 -2.782143389701e-01
 h      17                    1 -3.058748070906e+00  1.687884260672e+00 -4.042145469580e-01
 h      18                    1 -4.969890840890e-01  9.072682264938e-01 -1.720836564829e+00
[GTO]
1
 s           8
      6.665000000000e+03      6.915839628130e-04
      1.000000000000e+03      5.325796152934e-03
      2.280000000000e+02      2.706072104203e-02
      6.471000000000e+01      1.016568461408e-01
      2.106000000000e+01      2.745748236174e-01
      7.495000000000e+00      4.482943189238e-01
      2.797000000000e+00      2.849026107152e-01
      5.215000000000e-01      1.519485920608e-02
 s           8
      6.665000000000e+03     -2.932696526865e-04
      1.000000000000e+03     -2.318035473975e-03
      2.280000000000e+02     -1.149978603857e-02
      6.471000000000e+01     -4.682672700979e-02
      2.106000000000e+01     -1.284661687505e-01
      7.495000000000e+00     -3.012662724629e-01
      2.797000000000e+00     -2.556307023301e-01
      5.215000000000e-01      1.093793361012e+00
 s           1
      1.596000000000e-01      1.000000000000e+00
 s           1
      4.690000000000e-02      1.000000000000e+00
 p           3
      9.439000000000e+00      5.697925159004e-02
      2.002000000000e+00      3.132072115007e-01
      5.456000000000e-01      7.603767417375e-01
 p           1
      1.517000000000e-01      1.000000000000e+00
 p           1
      4.041000000000e-02      1.000000000000e+00
 d           1
      5.500000000000e-01      1.000000000000e+00
 d           1
      1.510000000000e-01      1.000000000000e+00

2
 s           8
      6.665000000000e+03      6.915839628130e-04
      1.000000000000e+03      5.325796152934e-03
      2.280000000000e+02      2.706072104203e-02
      6.471000000000e+01      1.016568461408e-01
      2.106000000000e+01      2.745748236174e-01
      7.495000000000e+00      4.482943189238e-01
      2.797000000000e+00      2.849026107152e-01
      5.215000000000e-01      1.519485920608e-02
 s           8
      6.665000000000e+03     -2.932696526865e-04
      1.000000000000e+03     -2.318035473975e-03
      2.280000000000e+02     -1.149978603857e-02
      6.471000000000e+01     -4.682672700979e-02
      2.106000000000e+01     -1.284661687505e-01
      7.495000000000e+00     -3.012662724629e-01
      2.797000000000e+00     -2.556307023301e-01
      5.215000000000e-01      1.093793361012e+00
 s           1
      1.596000000000e-01      1.000000000000e+00
 s           1
      4.690000000000e-02      1.000000000000e+00
 p           3
      9.439000000000e+00      5.697925159004e-02
      2.002000000000e+00      3.132072115007e-01
      5.456000000000e-01      7.603767417375e-01
 p           1
      1.517000000000e-01      1.000000000000e+00
 p           1
      4.041000000000e-02      1.000000000000e+00
 d           1
      5.500000000000e-01      1.000000000000e+00
 d           1
      1.510000000000e-01      1.000000000000e+00

3
 s           8
      6.665000000000e+03      6.915839628130e-04
      1.000000000000e+03      5.325796152934e-03
      2.280000000000e+02      2.706072104203e-02
      6.471000000000e+01      1.016568461408e-01
      2.106000000000e+01      2.745748236174e-01
      7.495000000000e+00      4.482943189238e-01
      2.797000000000e+00      2.849026107152e-01
      5.215000000000e-01      1.519485920608e-02
 s           8
      6.665000000000e+03     -2.932696526865e-04
      1.000000000000e+03     -2.318035473975e-03
      2.280000000000e+02     -1.149978603857e-02
      6.471000000000e+01     -4.682672700979e-02
      2.106000000000e+01     -1.284661687505e-01
      7.495000000000e+00     -3.012662724629e-01
      2.797000000000e+00     -2.556307023301e-01
      5.215000000000e-01      1.093793361012e+00
 s           1
      1.596000000000e-01      1.000000000000e+00
 s           1
      4.690000000000e-02      1.000000000000e+00
 p           3
      9.439000000000e+00      5.697925159004e-02
      2.002000000000e+00      3.132072115007e-01
      5.456000000000e-01      7.603767417375e-01
 p           1
      1.517000000000e-01      1.000000000000e+00
 p           1
      4.041000000000e-02      1.000000000000e+00
 d           1
      5.500000000000e-01      1.000000000000e+00
 d           1
      1.510000000000e-01      1.000000000000e+00

4
 s           8
      9.046000000000e+03      6.996174134255e-04
      1.357000000000e+03      5.386054629929e-03
      3.093000000000e+02      2.739102118906e-02
      8.773000000000e+01      1.031505919820e-01
      2.856000000000e+01      2.785706633174e-01
      1.021000000000e+01      4.482948494541e-01
      3.838000000000e+00      2.780859283953e-01
      7.466000000000e-01      1.543156123327e-02
 s           8
      9.046000000000e+03     -3.049900959534e-04
      1.357000000000e+03     -2.408026378508e-03
      3.093000000000e+02     -1.194444872518e-02
      8.773000000000e+01     -4.892599290902e-02
      2.856000000000e+01     -1.344727247250e-01
      1.021000000000e+01     -3.151125777001e-01
      3.838000000000e+00     -2.428578325496e-01
      7.466000000000e-01      1.094382206854e+00
 s           1
      2.248000000000e-01      1.000000000000e+00
 s           1
      6.124000000000e-02      1.000000000000e+00
 p           3
      1.355000000000e+01      5.890567677213e-02
      2.917000000000e+00      3.204611067143e-01
      7.973000000000e-01      7.530420617921e-01
 p           1
      2.185000000000e-01      1.000000000000e+00
 p           1
      5.611000000000e-02      1.000000000000e+00
 d           1
      8.170000000000e-01      1.000000000000e+00
 d           1
      2.300000000000e-01      1.000000000000e+00

5
 s           8
      4.570000000000e+03      6.955544180306e-04
      6.859000000000e+02      5.349572988100e-03
      1.565000000000e+02      2.711662870523e-02
      4.447000000000e+01      1.013150961206e-01
      1.448000000000e+01      2.718808293065e-01
      5.131000000000e+00      4.481159306152e-01
      1.898000000000e+00      2.899372621010e-01
      3.329000000000e-01      1.431283099861e-02
 s           8
      4.570000000000e+03     -2.812802240142e-04
      6.859000000000e+02     -2.219887811105e-03
      1.565000000000e+02     -1.101647150743e-02
      4.447000000000e+01     -4.434918985248e-02
      1.448000000000e+01     -1.209120479502e-01
      5.131000000000e+00     -2.807378995535e-01
      1.898000000000e+00     -2.660668087326e-01
      3.329000000000e-01      1.091784130514e+00
 s           1
      1.043000000000e-01      1.000000000000e+00
 s           1
      3.105000000000e-02      1.000000000000e+00
 p           3
      6.001000000000e+00      5.416586334015e-02
      1.241000000000e+00      3.023798901809e-01
      3.364000000000e-01      7.712922165481e-01
 p           1
      9.538000000000e-02      1.000000000000e+00
 p           1
      2.378000000000e-02      1.000000000000e+00
 d           1
      3.430000000000e-01      1.000000000000e+00
 d           1
      9.040000000000e-02      1.000000000000e+00

6
 s           8
      6.665000000000e+03      6.915839628130e-04
      1.000000000000e+03      5.325796152934e-03
      2.280000000000e+02      2.706072104203e-02
      6.471000000000e+01      1.016568461408e-01
      2.106000000000e+01      2.745748236174e-01
      7.495000000000e+00      4.482943189238e-01
      2.797000000000e+00      2.849026107152e-01
      5.215000000000e-01      1.519485920608e-02
 s           8
      6.665000000000e+03     -2.932696526865e-04
      1.000000000000e+03     -2.318035473975e-03
      2.280000000000e+02     -1.149978603857e-02
      6.471000000000e+01     -4.682672700979e-02
      2.106000000000e+01     -1.284661687505e-01
      7.495000000000e+00     -3.012662724629e-01
      2.797000000000e+00     -2.556307023301e-01
      5.215000000000e-01      1.093793361012e+00
 s           1
      1.596000000000e-01      1.000000000000e+00
 s           1
      4.690000000000e-02      1.000000000000e+00
 p           3
      9.439000000000e+00      5.697925159004e-02
      2.002000000000e+00      3.132072115007e-01
      5.456000000000e-01      7.603767417375e-01
 p           1
      1.517000000000e-01      1.000000000000e+00
 p           1
      4.041000000000e-02      1.000000000000e+00
 d           1
      5.500000000000e-01      1.000000000000e+00
 d           1
      1.510000000000e-01      1.000000000000e+00

7
 s           8
      6.665000000000e+03      6.915839628130e-04
      1.000000000000e+03      5.325796152934e-03
      2.280000000000e+02      2.706072104203e-02
      6.471000000000e+01      1.016568461408e-01
      2.106000000000e+01      2.745748236174e-01
      7.495000000000e+00      4.482943189238e-01
      2.797000000000e+00      2.849026107152e-01
      5.215000000000e-01      1.519485920608e-02
 s           8
      6.665000000000e+03     -2.932696526865e-04
      1.000000000000e+03     -2.318035473975e-03
      2.280000000000e+02     -1.149978603857e-02
      6.471000000000e+01     -4.682672700979e-02
      2.106000000000e+01     -1.284661687505e-01
      7.495000000000e+00     -3.012662724629e-01
      2.797000000000e+00     -2.556307023301e-01
      5.215000000000e-01      1.093793361012e+00
 s           1
      1.596000000000e-01      1.000000000000e+00
 s           1
      4.690000000000e-02      1.000000000000e+00
 p           3
      9.439000000000e+00      5.697925159004e-02
      2.002000000000e+00      3.132072115007e-01
      5.456000000000e-01      7.603767417375e-01
 p           1
      1.517000000000e-01      1.000000000000e+00
 p           1
      4.041000000000e-02      1.000000000000e+00
 d           1
      5.500000000000e-01      1.000000000000e+00
 d           1
      1.510000000000e-01      1.000000000000e+00

8
 s           8
      6.665000000000e+03      6.915839628130e-04
      1.000000000000e+03      5.325796152934e-03
      2.280000000000e+02      2.706072104203e-02
      6.471000000000e+01      1.016568461408e-01
      2.106000000000e+01      2.745748236174e-01
      7.495000000000e+00      4.482943189238e-01
      2.797000000000e+00      2.849026107152e-01
      5.215000000000e-01      1.519485920608e-02
 s           8
      6.665000000000e+03     -2.932696526865e-04
      1.000000000000e+03     -2.318035473975e-03
      2.280000000000e+02     -1.149978603857e-02
      6.471000000000e+01     -4.682672700979e-02
      2.106000000000e+01     -1.284661687505e-01
      7.495000000000e+00     -3.012662724629e-01
      2.797000000000e+00     -2.556307023301e-01
      5.215000000000e-01      1.093793361012e+00
 s           1
      1.596000000000e-01      1.000000000000e+00
 s           1
      4.690000000000e-02      1.000000000000e+00
 p           3
      9.439000000000e+00      5.697925159004e-02
      2.002000000000e+00      3.132072115007e-01
      5.456000000000e-01      7.603767417375e-01
 p           1
      1.517000000000e-01      1.000000000000e+00
 p           1
      4.041000000000e-02      1.000000000000e+00
 d           1
      5.500000000000e-01      1.000000000000e+00
 d           1
      1.510000000000e-01      1.000000000000e+00

9
 s           8
      6.665000000000e+03      6.915839628130e-04
      1.000000000000e+03      5.325796152934e-03
      2.280000000000e+02      2.706072104203e-02
      6.471000000000e+01      1.016568461408e-01
      2.106000000000e+01      2.745748236174e-01
      7.495000000000e+00      4.482943189238e-01
      2.797000000000e+00      2.849026107152e-01
      5.215000000000e-01      1.519485920608e-02
 s           8
      6.665000000000e+03     -2.932696526865e-04
      1.000000000000e+03     -2.318035473975e-03
      2.280000000000e+02     -1.149978603857e-02
      6.471000000000e+01     -4.682672700979e-02
      2.106000000000e+01     -1.284661687505e-01
      7.495000000000e+00     -3.012662724629e-01
      2.797000000000e+00     -2.556307023301e-01
      5.215000000000e-01      1.093793361012e+00
 s           1
      1.596000000000e-01      1.000000000000e+00
 s           1
      4.690000000000e-02      1.000000000000e+00
 p           3
      9.439000000000e+00      5.697925159004e-02
      2.002000000000e+00      3.132072115007e-01
      5.456000000000e-01      7.603767417375e-01
 p           1
      1.517000000000e-01      1.000000000000e+00
 p           1
      4.041000000000e-02      1.000000000000e+00
 d           1
      5.500000000000e-01      1.000000000000e+00
 d           1
      1.510000000000e-01      1.000000000000e+00

10
 s           8
      6.665000000000e+03      6.915839628130e-04
      1.000000000000e+03      5.325796152934e-03
      2.280000000000e+02      2.706072104203e-02
      6.471000000000e+01      1.016568461408e-01
      2.106000000000e+01      2.745748236174e-01
      7.495000000000e+00      4.482943189238e-01
      2.797000000000e+00      2.849026107152e-01
      5.215000000000e-01      1.519485920608e-02
 s           8
      6.665000000000e+03     -2.932696526865e-04
      1.000000000000e+03     -2.318035473975e-03
      2.280000000000e+02     -1.149978603857e-02
      6.471000000000e+01     -4.682672700979e-02
      2.106000000000e+01     -1.284661687505e-01
      7.495000000000e+00     -3.012662724629e-01
      2.797000000000e+00     -2.556307023301e-01
      5.215000000000e-01      1.093793361012e+00
 s           1
      1.596000000000e-01      1.000000000000e+00
 s           1
      4.690000000000e-02      1.000000000000e+00
 p           3
      9.439000000000e+00      5.697925159004e-02
      2.002000000000e+00      3.132072115007e-01
      5.456000000000e-01      7.603767417375e-01
 p           1
      1.517000000000e-01      1.000000000000e+00
 p           1
      4.041000000000e-02      1.000000000000e+00
 d           1
      5.500000000000e-01      1.000000000000e+00
 d           1
      1.510000000000e-01      1.000000000000e+00

11
 s           3
      1.301000000000e+01      3.349872639000e-02
      1.962000000000e+00      2.348008011741e-01
      4.446000000000e-01      8.136829578829e-01
 s           1
      1.220000000000e-01      1.000000000000e+00
 s           1
      2.974000000000e-02      1.000000000000e+00
 p           1
      7.270000000000e-01      1.000000000000e+00
 p           1
      1.410000000000e-01      1.000000000000e+00

12
 s           3
      1.301000000000e+01      3.349872639000e-02
      1.962000000000e+00      2.348008011741e-01
      4.446000000000e-01      8.136829578829e-01
 s           1
      1.220000000000e-01      1.000000000000e+00
 s           1
      2.974000000000e-02      1.000000000000e+00
 p           1
      7.270000000000e-01      1.000000000000e+00
 p           1
      1.410000000000e-01      1.000000000000e+00

13
 s           3
      1.301000000000e+01      3.349872639000e-02
      1.962000000000e+00      2.348008011741e-01
      4.446000000000e-01      8.136829578829e-01
 s           1
      1.220000000000e-01      1.000000000000e+00
 s           1
      2.974000000000e-02      1.000000000000e+00
 p           1
      7.270000000000e-01      1.000000000000e+00
 p           1
      1.410000000000e-01      1.000000000000e+00

14
 s           3
      1.301000000000e+01      3.349872639000e-02
      1.962000000000e+00      2.348008011741e-01
      4.446000000000e-01      8.136829578829e-01
 s           1
      1.220000000000e-01      1.000000000000e+00
 s           1
      2.974000000000e-02      1.000000000000e+00
 p           1
      7.270000000000e-01      1.000000000000e+00
 p           1
      1.410000000000e-01      1.000000000000e+00

15
 s           3
      1.301000000000e+01      3.349872639000e-02
      1.962000000000e+00      2.348008011741e-01
      4.446000000000e-01      8.136829578829e-01
 s           1
      1.220000000000e-01      1.000000000000e+00
 s           1
      2.974000000000e-02      1.000000000000e+00
 p           1
      7.270000000000e-01      1.000000000000e+00
 p           1
      1.410000000000e-01      1.000000000000e+00

16
 s           3
      1.301000000000e+01      3.349872639000e-02
      1.962000000000e+00      2.348008011741e-01
      4.446000000000e-01      8.136829578829e-01
 s           1
      1.220000000000e-01      1.000000000000e+00
 s           1
      2.974000000000e-02      1.000000000000e+00
 p           1
      7.270000000000e-01      1.000000000000e+00
 p           1
      1.410000000000e-01      1.000000000000e+00

17
 s           3
      1.301000000000e+01      3.349872639000e-02
      1.962000000000e+00      2.348008011741e-01
      4.446000000000e-01      8.136829578829e-01
 s           1
      1.220000000000e-01      1.000000000000e+00
 s           1
      2.974000000000e-02      1.000000000000e+00
 p           1
      7.270000000000e-01      1.000000000000e+00
 p           1
      1.410000000000e-01      1.000000000000e+00

18
 s           3
      1.301000000000e+01      3.349872639000e-02
      1.962000000000e+00      2.348008011741e-01
      4.446000000000e-01      8.136829578829e-01
 s           1
      1.220000000000e-01      1.000000000000e+00
 s           1
      2.974000000000e-02      1.000000000000e+00
 p           1
      7.270000000000e-01      1.000000000000e+00
 p           1
      1.410000000000e-01      1.000000000000e+00


[5D]
[7F]
[9G]
[MO]
 Ene=  -15.589252
 Spin=  Alpha
 Occup=    2.000000
   1     0.0000561430354973
   2     0.0001069881964737
   3    -0.0038921448761612
   4    -0.0088881831182942
   5    -0.0000103491015851
   6     0.0000057894350926
   7     0.0000059954706166
   8     0.0006959198018411
   9    -0.0063407905018711
  10    -0.0008645028962878
  11     0.0038112018805982
  12     0.0035618017315939
  13     0.0011097653533234
  14    -0.0000066116574223
  15    -0.0000013073824203
  16    -0.0000023699837417
  17     0.0000270271367631
  18    -0.0000255287616165
  19     0.0000133802086296
  20     0.0004261138224892
  21     0.0000689583541517
  22     0.0001756621115917
  23     0.0021420367563338
  24     0.0000088245687648
  25     0.0000426021886656
  26    -0.0064536543480981
  27     0.0127411623809790
  28    -0.0001211078143554
  29     0.0000326519162459
  30     0.0000171392680427
  31     0.0038240245310359
  32    -0.0083378776069404
  33     0.0003279239624707
  34    -0.0051099795018646
  35     0.0017604741299949
  36    -0.0008973950817901
  37     0.0000191636523109
  38     0.0000144401282009
  39    -0.0000008519278211
  40     0.0000900347031409
  41    -0.0000116544561865
  42    -0.0005393187350222
  43     0.0000102508059865
  44     0.0008479224473402
  45    -0.0022471804647372
  46     0.0022442116855653
  47    -0.0002791359036656
  48    -0.0004260092665721
  49    -0.0012257641752158
  50    -0.0268906286810721
  51     0.0002800672734261
  52     0.0002064202572505
  53     0.0001448524790012
  54     0.0129822689103219
  55     0.0046691606528897
  56     0.0030569011903850
  57    -0.0020940069596707
  58     0.0051369663554770
  59    -0.0001330566319016
  60     0.0000366300010431
  61     0.0000723783672790
  62     0.0000792584890893
  63     0.0001091049066263
  64     0.0002409651235505
  65     0.0009092601632745
  66    -0.0001886414496980
  67    -0.0013356049304198
  68     0.0019213129898946
  69    -0.0053731227655198
  70    -1.0031712331573945
  71    -0.0055572818795879
  72     0.0272527214230319
  73     0.0163788289577618
  74    -0.0005203882966838
  75    -0.0004026128219931
  76     0.0006818886043297
  77     0.0010346210902400
  78     0.0022040259174314
  79    -0.0026587366667867
  80     0.0045576809168622
  81     0.0019232606998441
  82     0.0006062668780361
  83     0.0001426258946676
  84    -0.0000965335381496
  85    -0.0001168176461835
  86     0.0000247391684559
  87    -0.0001693528621125
  88     0.0000137714489812
  89     0.0019258336721938
  90     0.0009456982396097
  91     0.0010908104520456
  92     0.0016216676022987
  93    -0.0002791508914592
  94    -0.0005086793935973
  95    -0.0013559247130680
  96     0.0038171193041572
  97     0.0000591599457415
  98    -0.0003268373182383
  99     0.0001109859603896
 100    -0.0015900835190635
 101     0.0014831493905344
 102     0.0003653933169181
 103     0.0007772419366824
 104     0.0002188068533629
 105     0.0001066031640009
 106     0.0001075234862734
 107    -0.0000022989864067
 108     0.0000625099711189
 109    -0.0000777108583010
 110     0.0000739865457401
 111    -0.0005376385097304
 112    -0.0001971821811174
 113     0.0003394397305431
 114    -0.0010773304544077
 115     0.0006996552515633
 116    -0.0000063002410111
 117     0.0000170713060886
 118    -0.0024012402434436
 119     0.0108254938696669
 120    -0.0000346147051821
 121     0.0000411716000826
 122     0.0000072867234222
 123    -0.0031077813246832
 124    -0.0007305592618324
 125    -0.0004410214882205
 126     0.0026115953172678
 127     0.0016110740426345
 128     0.0003395374323311
 129    -0.0000575068420345
 130     0.0000110449171710
 131    -0.0000060398439364
 132    -0.0000017638676977
 133    -0.0000634114918477
 134     0.0001469374451928
 135    -0.0001506051800008
 136    -0.0000307697218547
 137    -0.0009285184587150
 138    -0.0006116662895854
 139    -0.0000355177585958
 140    -0.0000649383758239
 141     0.0030215413835899
 142    -0.0035655516642082
 143     0.0000482063755960
 144     0.0000844619038352
 145    -0.0000214591409651
 146     0.0013945976292068
 147     0.0028654382956120
 148     0.0015966468947614
 149    -0.0007842297517264
 150    -0.0007246130955484
 151     0.0000109199270781
 152    -0.0000035503286411
 153    -0.0000488600279990
 154     0.0000142229121659
 155    -0.0000556595808234
 156     0.0000133417865666
 157    -0.0004459489004893
 158     0.0002703993165976
 159     0.0005882417634952
 160    -0.0002659132483056
 161     0.0006545570512365
 162    -0.0000831271048702
 163    -0.0001359505140965
 164     0.0020635152350370
 165     0.0017549218144442
 166    -0.0000592329255253
 167     0.0000305104834134
 168    -0.0000028584569275
 169    -0.0000910074765004
 170     0.0009348407108239
 171    -0.0004490045814130
 172     0.0007091767265640
 173     0.0007547452881249
 174     0.0001000564498881
 175    -0.0000592617348234
 176     0.0000252057872092
 177     0.0000267328892229
 178     0.0000002330311030
 179     0.0000265184169265
 180     0.0000672340805342
 181    -0.0000061193935317
 182    -0.0002755078971900
 183    -0.0003524520564900
 184    -0.0002456772789856
 185    -0.0000576388299639
 186    -0.0000860514254843
 187    -0.0036562849650886
 188     0.0001634908919826
 189    -0.0000132346094027
 190    -0.0000053867139170
 191     0.0000307517973986
 192     0.0000931909046804
 193     0.0013547552595783
 194     0.0007152696567229
 195     0.0005100492718829
 196     0.0000804142668957
 197    -0.0000692837564476
 198    -0.0000824035275346
 199     0.0000842894960830
 200     0.0000030844035346
 201     0.0001302913812324
 202    -0.0000766047404403
 203     0.0003141562010730
 204     0.0001924664322346
 205    -0.0003863655603361
 206     0.0006621089266086
 207    -0.0004471600837598
 208     0.0002195215156341
 209     0.0003293477988143
 210    -0.0097542558060804
 211     0.0004043516237271
 212    -0.0002334313254357
 213    -0.0001116984459762
 214    -0.0003179537880053
 215    -0.0050868332482435
 216     0.0033744468236570
 217    -0.0084850107417661
 218     0.0008675941322110
 219    -0.0006983324532333
 220    -0.0007467075022518
 221    -0.0000225212701649
 222    -0.0000448263388511
 223     0.0000154319373572
 224    -0.0001940252042545
 225    -0.0000607425377809
 226    -0.0023258288116147
 227    -0.0029613370270341
 228     0.0017134824755476
 229     0.0014295038994366
 230     0.0005590420277041
 231    -0.0000124324314069
 232     0.0005036086359757
 233    -0.0008104660556867
 234     0.0000173693953518
 235     0.0000020175079907
 236    -0.0000054989508384
 237    -0.0002002785085942
 238    -0.0003478172354061
 239    -0.0001607808109243
 240    -0.0000103618156261
 241     0.0008242262762488
 242     0.0006505361090202
 243    -0.0000494270987270
 244    -0.0000165600596214
 245    -0.0000244501311245
 246    -0.0004843815768256
 247    -0.0005132899720799
 248    -0.0002632929264109
 249     0.0002628715984597
 250    -0.0003498921933200
 251    -0.0018543883892732
 252    -0.0000442372786948
 253    -0.0001596707963105
 254    -0.0000297684201250
 255     0.0013477888279513
 256     0.0005230657473309
 257     0.0003742829410155
 258    -0.0000480470622298
 259    -0.0011999665821766
 260     0.0003996896989706
 261     0.0000119166673691
 262    -0.0000007998631778
 263    -0.0000072343536480
 264     0.0002070526232439
 265    -0.0000512096847008
 266    -0.0001390486538666
 267    -0.0000182848076298
 268     0.0017856171391367
 269    -0.0000806184425591
 270    -0.0000276194824238
 271    -0.0000318460154085
 272    -0.0000316264271494
 273     0.0000345596209532
 274     0.0003755972447305
 275     0.0002430220076915
 276    -0.0000130805612430
 277     0.0004004932758245
 278     0.0005518517798297
 279    -0.0000244647102449
 280    -0.0000119805910090
 281     0.0000171402340275
 282     0.0000204051864311
 283     0.0000276095183596
 284    -0.0000605113191904
 285     0.0000368935010841
 286    -0.0007369166832139
 287     0.0003094534120207
 288     0.0000001470871706
 289     0.0000294386901659
 290     0.0000200950055903
 291    -0.0001014588148341
 292     0.0003948301003525
 293     0.0001313143034115
 294     0.0001816619780437
 295    -0.0029942178249738
 296    -0.0004426190465408
 297    -0.0000172014889600
 298    -0.0000158549211445
 299     0.0001606382368729
 300    -0.0007590288523930
 301     0.0005420869413151
 302    -0.0007723028486414
 Ene=  -11.293631
 Spin=  Alpha
 Occup=    2.000000
   1    -0.0000231847866245
   2    -0.0000373058426779
   3     0.0027569231953878
   4     0.0030068180377372
   5    -0.0000244700965608
   6    -0.0000026852976610
   7     0.0000018036837824
   8     0.0008853293559010
   9     0.0033228307726724
  10     0.0004081197087505
  11     0.0001625684240581
  12     0.0010962302505888
  13     0.0003914115020507
  14    -0.0000088700116082
  15     0.0000185673489382
  16     0.0000139410259159
  17     0.0000095755987592
  18    -0.0000304700369890
  19     0.0000599110695773
  20    -0.0002623547746404
  21     0.0002435483032716
  22    -0.0010984451781577
  23    -0.0007123055548543
  24     0.0000011739966031
  25     0.0000271834492747
  26     0.0055554117104907
  27     0.0011935063606843
  28    -0.0000865660513907
  29     0.0000265547558137
  30    -0.0000330297475121
  31    -0.0054452085290155
  32     0.0047642251071973
  33    -0.0011351494173826
  34    -0.0012830616589284
  35     0.0019039627703892
  36    -0.0000936206509312
  37    -0.0000126074667444
  38     0.0000286333604270
  39    -0.0000018113894231
  40     0.0000245161722844
  41    -0.0000098392011759
  42     0.0001688177146746
  43     0.0004450040074750
  44    -0.0003544378597259
  45     0.0020059395807220
  46    -0.0009101819425394
  47    -0.0024281397613027
  48     0.0000312107488429
  49    -0.0072722507840684
  50     0.0017002977661495
  51     0.0001854510282990
  52     0.0000875014481767
  53     0.0001147645152864
  54    -0.0062790721429417
  55     0.0020568237110189
  56    -0.0004879747592396
  57    -0.0030818458512088
  58     0.0000455163870002
  59    -0.0010256740058772
  60     0.0000053345516094
  61    -0.0000966635813589
  62    -0.0000907793631371
  63     0.0000600562104839
  64     0.0000825304468305
  65     0.0002469104620931
  66    -0.0004096901053604
  67     0.0002567054347570
  68    -0.0010169119159941
  69     0.0032539937694267
  70     0.0001439910074638
  71     0.0005736432041283
  72    -0.0019731089868184
  73     0.0022832703241379
  74    -0.0003525437528429
  75    -0.0000054846995820
  76    -0.0002186929337939
  77    -0.0011210633549617
  78    -0.0004048172645541
  79    -0.0001455625048363
  80    -0.0039678559667941
  81    -0.0035102558738030
  82    -0.0007243230192139
  83     0.0000008588773006
  84    -0.0001203742160099
  85    -0.0000326778160071
  86    -0.0000483312758381
  87    -0.0000677124927229
  88    -0.0010734327873278
  89    -0.0004910113876456
  90    -0.0003731124087914
  91     0.0003868019867715
  92     0.0003081554309090
  93    -0.0002140451384081
  94    -0.0003581715976500
  95     0.0048247508921545
  96     0.0006632276742110
  97     0.0001248000808449