 Entering Gaussian System, Link 0=g16
 Initial command:
 /local/gaussian-16.A03/g16/l1.exe "/scratch/3071536/3D_NICS/Gau-4064.inp" -scrdir="/scratch/3071536/3D_NICS/"
 Default CPUs for threads: 0-9,14-23,28-37,42-51
 Default is to use a total of  40 processors:
                               40 via shared-memory
                                1 via Linda
 Entering Link 1 = /local/gaussian-16.A03/g16/l1.exe PID=      4066.
  
 Copyright (c) 1988,1990,1992,1993,1995,1998,2003,2009,2016,
            Gaussian, Inc.  All Rights Reserved.
  
 This is part of the Gaussian(R) 16 program.  It is based on
 the Gaussian(R) 09 system (copyright 2009, Gaussian, Inc.),
 the Gaussian(R) 03 system (copyright 2003, Gaussian, Inc.),
 the Gaussian(R) 98 system (copyright 1998, Gaussian, Inc.),
 the Gaussian(R) 94 system (copyright 1995, Gaussian, Inc.),
 the Gaussian 92(TM) system (copyright 1992, Gaussian, Inc.),
 the Gaussian 90(TM) system (copyright 1990, Gaussian, Inc.),
 the Gaussian 88(TM) system (copyright 1988, Gaussian, Inc.),
 the Gaussian 86(TM) system (copyright 1986, Carnegie Mellon
 University), and the Gaussian 82(TM) system (copyright 1983,
 Carnegie Mellon University). Gaussian is a federally registered
 trademark of Gaussian, Inc.
  
 This software contains proprietary and confidential information,
 including trade secrets, belonging to Gaussian, Inc.
  
 This software is provided under written license and may be
 used, copied, transmitted, or stored only in accord with that
 written license.
  
 The following legend is applicable only to US Government
 contracts under FAR:
  
                    RESTRICTED RIGHTS LEGEND
  
 Use, reproduction and disclosure by the US Government is
 subject to restrictions as set forth in subparagraphs (a)
 and (c) of the Commercial Computer Software - Restricted
 Rights clause in FAR 52.227-19.
  
 Gaussian, Inc.
 340 Quinnipiac St., Bldg. 40, Wallingford CT 06492
  
  
 ---------------------------------------------------------------
 Warning -- This program may not be used in any manner that
 competes with the business of Gaussian, Inc. or will provide
 assistance to any competitor of Gaussian, Inc.  The licensee
 of this program is prohibited from giving any competitor of
 Gaussian, Inc. access to this program.  By using this program,
 the user acknowledges that Gaussian, Inc. is engaged in the
 business of creating and licensing software in the field of
 computational chemistry and represents and warrants to the
 licensee that it is not a competitor of Gaussian, Inc. and that
 it will not use this program in any manner prohibited above.
 ---------------------------------------------------------------
  

 Cite this work as:
 Gaussian 16, Revision A.03,
 M. J. Frisch, G. W. Trucks, H. B. Schlegel, G. E. Scuseria, 
 M. A. Robb, J. R. Cheeseman, G. Scalmani, V. Barone, 
 G. A. Petersson, H. Nakatsuji, X. Li, M. Caricato, A. V. Marenich, 
 J. Bloino, B. G. Janesko, R. Gomperts, B. Mennucci, H. P. Hratchian, 
 J. V. Ortiz, A. F. Izmaylov, J. L. Sonnenberg, D. Williams-Young, 
 F. Ding, F. Lipparini, F. Egidi, J. Goings, B. Peng, A. Petrone, 
 T. Henderson, D. Ranasinghe, V. G. Zakrzewski, J. Gao, N. Rega, 
 G. Zheng, W. Liang, M. Hada, M. Ehara, K. Toyota, R. Fukuda, 
 J. Hasegawa, M. Ishida, T. Nakajima, Y. Honda, O. Kitao, H. Nakai, 
 T. Vreven, K. Throssell, J. A. Montgomery, Jr., J. E. Peralta, 
 F. Ogliaro, M. J. Bearpark, J. J. Heyd, E. N. Brothers, K. N. Kudin, 
 V. N. Staroverov, T. A. Keith, R. Kobayashi, J. Normand, 
 K. Raghavachari, A. P. Rendell, J. C. Burant, S. S. Iyengar, 
 J. Tomasi, M. Cossi, J. M. Millam, M. Klene, C. Adamo, R. Cammi, 
 J. W. Ochterski, R. L. Martin, K. Morokuma, O. Farkas, 
 J. B. Foresman, and D. J. Fox, Gaussian, Inc., Wallingford CT, 2016.
 
 ******************************************
 Gaussian 16:  ES64L-G16RevA.03 25-Dec-2016
                20-Nov-2025 
 ******************************************
 %nprocshared=40
 Will use up to   40 processors via shared memory.
 %mem=90gb
 %chk=planar_alignedXY_3D_NICS.chk
 -----------------------------------------------------------------
 #p nmr=giao wb97x/aug-cc-pvdz nosymm geom=connectivity guess=read
 -----------------------------------------------------------------
 1/38=1,57=2,172=1/1;
 2/12=2,15=1,17=6,18=5,40=1/2;
 3/5=16,7=10,11=2,25=1,30=1,74=-57,116=-2/1,2,3,8;
 4/5=1/1;
 5/5=2,38=6/2;
 8/6=1,10=90,11=11/1;
 10/13=100,31=1,45=16/2;
 6/7=2,8=2,9=2,10=2,28=1/1;
 99/9=1/99;
 Leave Link    1 at Thu Nov 20 17:17:09 2025, MaxMem= 12079595520 cpu:               5.1 elap:               0.2
 (Enter /local/gaussian-16.A03/g16/l101.exe)
 --------------------------
 File Created by py.Aroma 5
 --------------------------
 Symbolic Z-matrix:
 Charge =  0 Multiplicity = 1
 C                     2.4354   -0.68942  -0.0003 
 C                     2.42376   0.72894  -0.00009 
 C                     1.23339   1.41075   0.00004 
 C                    -0.00581   0.71149   0.00004 
 C                     0.0058   -0.71064   0.00004 
 C                     1.25595  -1.39018  -0.00016 
 C                    -1.23309  -1.41051  -0.00003 
 C                    -2.42382  -0.72911   0.00009 
 C                    -2.43534   0.68926   0.0003 
 C                    -1.25625   1.39041   0.00017 
 H                     3.38735  -1.22144  -0.00053 
 H                     3.36726   1.27588  -0.00021 
 H                     1.22135   2.502     0.00027 
 H                     1.26215  -2.48147  -0.00037 
 H                    -1.22141  -2.50175  -0.00029 
 H                    -3.36696  -1.27661   0.00019 
 H                    -3.38765   1.2207    0.0005 
 H                    -1.26208   2.48171   0.00036 
 Bq                    4.71      3.7       0.7 
 Bq                    4.71      3.7       0.8 
 Bq                    4.71      3.7       0.9 
 Bq                    4.71      3.7       1. 
 Bq                    4.71      3.7       1.1 
 Bq                    4.71      3.7       1.2 
 Bq                    4.71      3.7       1.3 
 Bq                    4.71      3.7       1.4 
 Bq                    4.71      3.7       1.5 
 Bq                    4.71      3.7       1.6 
 Bq                    4.71      3.7       1.7 
 Bq                    4.71      3.7       1.8 
 Bq                    4.71      3.7       1.9 
 Bq                    4.71      3.7       2. 
 Bq                    4.71      3.8      -2. 
 Bq                    4.71      3.8      -1.9 
 Bq                    4.71      3.8      -1.8 
 Bq                    4.71      3.8      -1.7 
 Bq                    4.71      3.8      -1.6 
 Bq                    4.71      3.8      -1.5 
 Bq                    4.71      3.8      -1.4 
 Bq                    4.71      3.8      -1.3 
 Bq                    4.71      3.8      -1.2 
 Bq                    4.71      3.8      -1.1 
 Bq                    4.71      3.8      -1. 
 Bq                    4.71      3.8      -0.9 
 Bq                    4.71      3.8      -0.8 
 Bq                    4.71      3.8      -0.7 
 Bq                    4.71      3.8      -0.6 
 Bq                    4.71      3.8      -0.5 
 Bq                    4.71      3.8      -0.4 
 Bq                    4.71      3.8      -0.3 
 Bq                    4.71      3.8      -0.2 
 Bq                    4.71      3.8      -0.1 
 Bq                    4.71      3.8       0. 
 Bq                    4.71      3.8       0.1 
 Bq                    4.71      3.8       0.2 
 Bq                    4.71      3.8       0.3 
 Bq                    4.71      3.8       0.4 
 Bq                    4.71      3.8       0.5 
 Bq                    4.71      3.8       0.6 
 Bq                    4.71      3.8       0.7 
 Bq                    4.71      3.8       0.8 
 Bq                    4.71      3.8       0.9 
 Bq                    4.71      3.8       1. 
 Bq                    4.71      3.8       1.1 
 Bq                    4.71      3.8       1.2 
 Bq                    4.71      3.8       1.3 
 Bq                    4.71      3.8       1.4 
 Bq                    4.71      3.8       1.5 
 Bq                    4.71      3.8       1.6 
 Bq                    4.71      3.8       1.7 
 Bq                    4.71      3.8       1.8 
 Bq                    4.71      3.8       1.9 
 Bq                    4.71      3.8       2. 
 Bq                    4.71      3.9      -2. 
 Bq                    4.71      3.9      -1.9 
 Bq                    4.71      3.9      -1.8 
 Bq                    4.71      3.9      -1.7 
 Bq                    4.71      3.9      -1.6 
 Bq                    4.71      3.9      -1.5 
 Bq                    4.71      3.9      -1.4 
 Bq                    4.71      3.9      -1.3 
 Bq                    4.71      3.9      -1.2 
 Bq                    4.71      3.9      -1.1 
 Bq                    4.71      3.9      -1. 
 Bq                    4.71      3.9      -0.9 
 Bq                    4.71      3.9      -0.8 
 Bq                    4.71      3.9      -0.7 
 Bq                    4.71      3.9      -0.6 
 Bq                    4.71      3.9      -0.5 
 Bq                    4.71      3.9      -0.4 
 Bq                    4.71      3.9      -0.3 
 Bq                    4.71      3.9      -0.2 
 Bq                    4.71      3.9      -0.1 
 Bq                    4.71      3.9       0. 
 Bq                    4.71      3.9       0.1 
 Bq                    4.71      3.9       0.2 
 Bq                    4.71      3.9       0.3 
 Bq                    4.71      3.9       0.4 
 Bq                    4.71      3.9       0.5 
 Bq                    4.71      3.9       0.6 
 Bq                    4.71      3.9       0.7 
 Bq                    4.71      3.9       0.8 
 Bq                    4.71      3.9       0.9 
 Bq                    4.71      3.9       1. 
 Bq                    4.71      3.9       1.1 
 Bq                    4.71      3.9       1.2 
 Bq                    4.71      3.9       1.3 
 Bq                    4.71      3.9       1.4 
 Bq                    4.71      3.9       1.5 
 Bq                    4.71      3.9       1.6 
 Bq                    4.71      3.9       1.7 
 Bq                    4.71      3.9       1.8 
 Bq                    4.71      3.9       1.9 
 Bq                    4.71      3.9       2. 
 Bq                    4.71      4.       -2. 
 Bq                    4.71      4.       -1.9 
 Bq                    4.71      4.       -1.8 
 Bq                    4.71      4.       -1.7 
 Bq                    4.71      4.       -1.6 
 Bq                    4.71      4.       -1.5 
 Bq                    4.71      4.       -1.4 
 Bq                    4.71      4.       -1.3 
 Bq                    4.71      4.       -1.2 
 Bq                    4.71      4.       -1.1 
 Bq                    4.71      4.       -1. 
 Bq                    4.71      4.       -0.9 
 Bq                    4.71      4.       -0.8 
 Bq                    4.71      4.       -0.7 
 Bq                    4.71      4.       -0.6 
 Bq                    4.71      4.       -0.5 
 Bq                    4.71      4.       -0.4 
 Bq                    4.71      4.       -0.3 
 Bq                    4.71      4.       -0.2 
 Bq                    4.71      4.       -0.1 
 Bq                    4.71      4.        0. 
 Bq                    4.71      4.        0.1 
 Bq                    4.71      4.        0.2 
 Bq                    4.71      4.        0.3 
 Bq                    4.71      4.        0.4 
 Bq                    4.71      4.        0.5 
 Bq                    4.71      4.        0.6 
 Bq                    4.71      4.        0.7 
 Bq                    4.71      4.        0.8 
 Bq                    4.71      4.        0.9 
 Bq                    4.71      4.        1. 
 Bq                    4.71      4.        1.1 
 Bq                    4.71      4.        1.2 
 Bq                    4.71      4.        1.3 
 Bq                    4.71      4.        1.4 
 Bq                    4.71      4.        1.5 
 Bq                    4.71      4.        1.6 
 Bq                    4.71      4.        1.7 
 Bq                    4.71      4.        1.8 
 Bq                    4.71      4.        1.9 
 Bq                    4.71      4.        2. 
 Bq                    4.81     -4.       -2. 
 Bq                    4.81     -4.       -1.9 
 Bq                    4.81     -4.       -1.8 
 Bq                    4.81     -4.       -1.7 
 Bq                    4.81     -4.       -1.6 
 Bq                    4.81     -4.       -1.5 
 Bq                    4.81     -4.       -1.4 
 Bq                    4.81     -4.       -1.3 
 Bq                    4.81     -4.       -1.2 
 Bq                    4.81     -4.       -1.1 
 Bq                    4.81     -4.       -1. 
 Bq                    4.81     -4.       -0.9 
 Bq                    4.81     -4.       -0.8 
 Bq                    4.81     -4.       -0.7 
 Bq                    4.81     -4.       -0.6 
 Bq                    4.81     -4.       -0.5 
 Bq                    4.81     -4.       -0.4 
 Bq                    4.81     -4.       -0.3 
 Bq                    4.81     -4.       -0.2 
 Bq                    4.81     -4.       -0.1 
 Bq                    4.81     -4.        0. 
 Bq                    4.81     -4.        0.1 
 Bq                    4.81     -4.        0.2 
 Bq                    4.81     -4.        0.3 
 Bq                    4.81     -4.        0.4 
 Bq                    4.81     -4.        0.5 
 Bq                    4.81     -4.        0.6 
 Bq                    4.81     -4.        0.7 
 Bq                    4.81     -4.        0.8 
 Bq                    4.81     -4.        0.9 
 Bq                    4.81     -4.        1. 
 Bq                    4.81     -4.        1.1 
 Bq                    4.81     -4.        1.2 
 Bq                    4.81     -4.        1.3 
 Bq                    4.81     -4.        1.4 
 Bq                    4.81     -4.        1.5 
 Bq                    4.81     -4.        1.6 
 Bq                    4.81     -4.        1.7 
 Bq                    4.81     -4.        1.8 
 Bq                    4.81     -4.        1.9 
 Bq                    4.81     -4.        2. 
 Bq                    4.81     -3.9      -2. 
 Bq                    4.81     -3.9      -1.9 
 Bq                    4.81     -3.9      -1.8 
 Bq                    4.81     -3.9      -1.7 
 Bq                    4.81     -3.9      -1.6 
 Bq                    4.81     -3.9      -1.5 
 Bq                    4.81     -3.9      -1.4 
 Bq                    4.81     -3.9      -1.3 
 Bq                    4.81     -3.9      -1.2 
 Bq                    4.81     -3.9      -1.1 
 Bq                    4.81     -3.9      -1. 
 Bq                    4.81     -3.9      -0.9 
 Bq                    4.81     -3.9      -0.8 
 Bq                    4.81     -3.9      -0.7 
 Bq                    4.81     -3.9      -0.6 
 Bq                    4.81     -3.9      -0.5 
 Bq                    4.81     -3.9      -0.4 
 Bq                    4.81     -3.9      -0.3 
 Bq                    4.81     -3.9      -0.2 
 Bq                    4.81     -3.9      -0.1 
 Bq                    4.81     -3.9       0. 
 Bq                    4.81     -3.9       0.1 
 Bq                    4.81     -3.9       0.2 
 Bq                    4.81     -3.9       0.3 
 Bq                    4.81     -3.9       0.4 
 Bq                    4.81     -3.9       0.5 
 Bq                    4.81     -3.9       0.6 
 Bq                    4.81     -3.9       0.7 
 Bq                    4.81     -3.9       0.8 
 Bq                    4.81     -3.9       0.9 
 Bq                    4.81     -3.9       1. 
 Bq                    4.81     -3.9       1.1 
 Bq                    4.81     -3.9       1.2 
 Bq                    4.81     -3.9       1.3 
 Bq                    4.81     -3.9       1.4 
 Bq                    4.81     -3.9       1.5 
 Bq                    4.81     -3.9       1.6 
 Bq                    4.81     -3.9       1.7 
 Bq                    4.81     -3.9       1.8 
 Bq                    4.81     -3.9       1.9 
 Bq                    4.81     -3.9       2. 
 Bq                    4.81     -3.8      -2. 
 Bq                    4.81     -3.8      -1.9 
 Bq                    4.81     -3.8      -1.8 
 Bq                    4.81     -3.8      -1.7 
 Bq                    4.81     -3.8      -1.6 
 Bq                    4.81     -3.8      -1.5 
 Bq                    4.81     -3.8      -1.4 
 Bq                    4.81     -3.8      -1.3 
 Bq                    4.81     -3.8      -1.2 
 Bq                    4.81     -3.8      -1.1 
 Bq                    4.81     -3.8      -1. 
 Bq                    4.81     -3.8      -0.9 
 Bq                    4.81     -3.8      -0.8 
 Bq                    4.81     -3.8      -0.7 
 Bq                    4.81     -3.8      -0.6 
 Bq                    4.81     -3.8      -0.5 
 Bq                    4.81     -3.8      -0.4 
 Bq                    4.81     -3.8      -0.3 
 Bq                    4.81     -3.8      -0.2 
 Bq                    4.81     -3.8      -0.1 
 Bq                    4.81     -3.8       0. 
 Bq                    4.81     -3.8       0.1 
 Bq                    4.81     -3.8       0.2 
 Bq                    4.81     -3.8       0.3 
 Bq                    4.81     -3.8       0.4 
 Bq                    4.81     -3.8       0.5 
 Bq                    4.81     -3.8       0.6 
 Bq                    4.81     -3.8       0.7 
 Bq                    4.81     -3.8       0.8 
 Bq                    4.81     -3.8       0.9 
 Bq                    4.81     -3.8       1. 
 Bq                    4.81     -3.8       1.1 
 Bq                    4.81     -3.8       1.2 
 Bq                    4.81     -3.8       1.3 
 Bq                    4.81     -3.8       1.4 
 Bq                    4.81     -3.8       1.5 
 Bq                    4.81     -3.8       1.6 
 Bq                    4.81     -3.8       1.7 
 Bq                    4.81     -3.8       1.8 
 Bq                    4.81     -3.8       1.9 
 Bq                    4.81     -3.8       2. 
 Bq                    4.81     -3.7      -2. 
 Bq                    4.81     -3.7      -1.9 
 Bq                    4.81     -3.7      -1.8 
 Bq                    4.81     -3.7      -1.7 
 Bq                    4.81     -3.7      -1.6 
 Bq                    4.81     -3.7      -1.5 
 Bq                    4.81     -3.7      -1.4 
 Bq                    4.81     -3.7      -1.3 
 Bq                    4.81     -3.7      -1.2 
 Bq                    4.81     -3.7      -1.1 
 Bq                    4.81     -3.7      -1. 
 Bq                    4.81     -3.7      -0.9 
 Bq                    4.81     -3.7      -0.8 
 Bq                    4.81     -3.7      -0.7 
 Bq                    4.81     -3.7      -0.6 
 Bq                    4.81     -3.7      -0.5 
 Bq                    4.81     -3.7      -0.4 
 Bq                    4.81     -3.7      -0.3 
 Bq                    4.81     -3.7      -0.2 
 Bq                    4.81     -3.7      -0.1 
 Bq                    4.81     -3.7       0. 
 Bq                    4.81     -3.7       0.1 
 Bq                    4.81     -3.7       0.2 
 Bq                    4.81     -3.7       0.3 
 Bq                    4.81     -3.7       0.4 
 Bq                    4.81     -3.7       0.5 
 Bq                    4.81     -3.7       0.6 
 Bq                    4.81     -3.7       0.7 
 Bq                    4.81     -3.7       0.8 
 Bq                    4.81     -3.7       0.9 
 Bq                    4.81     -3.7       1. 
 Bq                    4.81     -3.7       1.1 
 Bq                    4.81     -3.7       1.2 
 Bq                    4.81     -3.7       1.3 
 Bq                    4.81     -3.7       1.4 
 Bq                    4.81     -3.7       1.5 
 Bq                    4.81     -3.7       1.6 
 Bq                    4.81     -3.7       1.7 
 Bq                    4.81     -3.7       1.8 
 Bq                    4.81     -3.7       1.9 
 Bq                    4.81     -3.7       2. 
 Bq                    4.81     -3.6      -2. 
 Bq                    4.81     -3.6      -1.9 
 Bq                    4.81     -3.6      -1.8 
 Bq                    4.81     -3.6      -1.7 
 Bq                    4.81     -3.6      -1.6 
 Bq                    4.81     -3.6      -1.5 
 Bq                    4.81     -3.6      -1.4 
 Bq                    4.81     -3.6      -1.3 
 Bq                    4.81     -3.6      -1.2 
 Bq                    4.81     -3.6      -1.1 
 Bq                    4.81     -3.6      -1. 
 Bq                    4.81     -3.6      -0.9 
 Bq                    4.81     -3.6      -0.8 
 Bq                    4.81     -3.6      -0.7 
 Bq                    4.81     -3.6      -0.6 
 Bq                    4.81     -3.6      -0.5 
 Bq                    4.81     -3.6      -0.4 
 Bq                    4.81     -3.6      -0.3 
 Bq                    4.81     -3.6      -0.2 
 Bq                    4.81     -3.6      -0.1 
 Bq                    4.81     -3.6       0. 
 Bq                    4.81     -3.6       0.1 
 Bq                    4.81     -3.6       0.2 
 Bq                    4.81     -3.6       0.3 
 Bq                    4.81     -3.6       0.4 
 Bq                    4.81     -3.6       0.5 
 Bq                    4.81     -3.6       0.6 
 Bq                    4.81     -3.6       0.7 
 Bq                    4.81     -3.6       0.8 
 Bq                    4.81     -3.6       0.9 
 Bq                    4.81     -3.6       1. 
 Bq                    4.81     -3.6       1.1 
 Bq                    4.81     -3.6       1.2 
 Bq                    4.81     -3.6       1.3 
 Bq                    4.81     -3.6       1.4 
 Bq                    4.81     -3.6       1.5 
 Bq                    4.81     -3.6       1.6 
 Bq                    4.81     -3.6       1.7 
 Bq                    4.81     -3.6       1.8 
 Bq                    4.81     -3.6       1.9 
 Bq                    4.81     -3.6       2. 
 Bq                    4.81     -3.5      -2. 
 Bq                    4.81     -3.5      -1.9 
 Bq                    4.81     -3.5      -1.8 
 Bq                    4.81     -3.5      -1.7 
 Bq                    4.81     -3.5      -1.6 
 Bq                    4.81     -3.5      -1.5 
 Bq                    4.81     -3.5      -1.4 
 Bq                    4.81     -3.5      -1.3 
 Bq                    4.81     -3.5      -1.2 
 Bq                    4.81     -3.5      -1.1 
 Bq                    4.81     -3.5      -1. 
 Bq                    4.81     -3.5      -0.9 
 Bq                    4.81     -3.5      -0.8 
 Bq                    4.81     -3.5      -0.7 
 Bq                    4.81     -3.5      -0.6 
 Bq                    4.81     -3.5      -0.5 
 Bq                    4.81     -3.5      -0.4 
 Bq                    4.81     -3.5      -0.3 
 Bq                    4.81     -3.5      -0.2 
 Bq                    4.81     -3.5      -0.1 
 Bq                    4.81     -3.5       0. 
 Bq                    4.81     -3.5       0.1 
 Bq                    4.81     -3.5       0.2 
 Bq                    4.81     -3.5       0.3 
 Bq                    4.81     -3.5       0.4 
 Bq                    4.81     -3.5       0.5 
 Bq                    4.81     -3.5       0.6 
 Bq                    4.81     -3.5       0.7 
 Bq                    4.81     -3.5       0.8 
 Bq                    4.81     -3.5       0.9 
 Bq                    4.81     -3.5       1. 
 Bq                    4.81     -3.5       1.1 
 Bq                    4.81     -3.5       1.2 
 Bq                    4.81     -3.5       1.3 
 Bq                    4.81     -3.5       1.4 
 Bq                    4.81     -3.5       1.5 
 Bq                    4.81     -3.5       1.6 
 Bq                    4.81     -3.5       1.7 
 Bq                    4.81     -3.5       1.8 
 Bq                    4.81     -3.5       1.9 
 Bq                    4.81     -3.5       2. 
 Bq                    4.81     -3.4      -2. 
 Bq                    4.81     -3.4      -1.9 
 Bq                    4.81     -3.4      -1.8 
 Bq                    4.81     -3.4      -1.7 
 Bq                    4.81     -3.4      -1.6 
 Bq                    4.81     -3.4      -1.5 
 Bq                    4.81     -3.4      -1.4 
 Bq                    4.81     -3.4      -1.3 
 Bq                    4.81     -3.4      -1.2 
 Bq                    4.81     -3.4      -1.1 
 Bq                    4.81     -3.4      -1. 
 Bq                    4.81     -3.4      -0.9 
 Bq                    4.81     -3.4      -0.8 
 Bq                    4.81     -3.4      -0.7 
 Bq                    4.81     -3.4      -0.6 
 Bq                    4.81     -3.4      -0.5 
 Bq                    4.81     -3.4      -0.4 
 Bq                    4.81     -3.4      -0.3 
 Bq                    4.81     -3.4      -0.2 
 Bq                    4.81     -3.4      -0.1 
 Bq                    4.81     -3.4       0. 
 Bq                    4.81     -3.4       0.1 
 Bq                    4.81     -3.4       0.2 
 Bq                    4.81     -3.4       0.3 
 Bq                    4.81     -3.4       0.4 
 Bq                    4.81     -3.4       0.5 
 Bq                    4.81     -3.4       0.6 
 Bq                    4.81     -3.4       0.7 
 Bq                    4.81     -3.4       0.8 
 Bq                    4.81     -3.4       0.9 
 Bq                    4.81     -3.4       1. 
 Bq                    4.81     -3.4       1.1 
 Bq                    4.81     -3.4       1.2 
 Bq                    4.81     -3.4       1.3 
 Bq                    4.81     -3.4       1.4 
 Bq                    4.81     -3.4       1.5 
 Bq                    4.81     -3.4       1.6 
 Bq                    4.81     -3.4       1.7 
 Bq                    4.81     -3.4       1.8 
 Bq                    4.81     -3.4       1.9 
 Bq                    4.81     -3.4       2. 
 Bq                    4.81     -3.3      -2. 
 Bq                    4.81     -3.3      -1.9 
 Bq                    4.81     -3.3      -1.8 
 Bq                    4.81     -3.3      -1.7 
 Bq                    4.81     -3.3      -1.6 
 Bq                    4.81     -3.3      -1.5 
 Bq                    4.81     -3.3      -1.4 
 Bq                    4.81     -3.3      -1.3 
 Bq                    4.81     -3.3      -1.2 
 Bq                    4.81     -3.3      -1.1 
 Bq                    4.81     -3.3      -1. 
 Bq                    4.81     -3.3      -0.9 
 Bq                    4.81     -3.3      -0.8 
 Bq                    4.81     -3.3      -0.7 
 Bq                    4.81     -3.3      -0.6 
 Bq                    4.81     -3.3      -0.5 
 Bq                    4.81     -3.3      -0.4 
 Bq                    4.81     -3.3      -0.3 
 Bq                    4.81     -3.3      -0.2 
 Bq                    4.81     -3.3      -0.1 
 Bq                    4.81     -3.3       0. 
 Bq                    4.81     -3.3       0.1 
 Bq                    4.81     -3.3       0.2 
 Bq                    4.81     -3.3       0.3 
 Bq                    4.81     -3.3       0.4 
 Bq                    4.81     -3.3       0.5 
 Bq                    4.81     -3.3       0.6 
 Bq                    4.81     -3.3       0.7 
 Bq                    4.81     -3.3       0.8 
 Bq                    4.81     -3.3       0.9 
 Bq                    4.81     -3.3       1. 
 Bq                    4.81     -3.3       1.1 
 Bq                    4.81     -3.3       1.2 
 Bq                    4.81     -3.3       1.3 
 Bq                    4.81     -3.3       1.4 
 Bq                    4.81     -3.3       1.5 
 Bq                    4.81     -3.3       1.6 
 Bq                    4.81     -3.3       1.7 
 Bq                    4.81     -3.3       1.8 
 Bq                    4.81     -3.3       1.9 
 Bq                    4.81     -3.3       2. 
 Bq                    4.81     -3.2      -2. 
 Bq                    4.81     -3.2      -1.9 
 Bq                    4.81     -3.2      -1.8 
 Bq                    4.81     -3.2      -1.7 
 Bq                    4.81     -3.2      -1.6 
 Bq                    4.81     -3.2      -1.5 
 Bq                    4.81     -3.2      -1.4 
 Bq                    4.81     -3.2      -1.3 
 Bq                    4.81     -3.2      -1.2 
 Bq                    4.81     -3.2      -1.1 
 Bq                    4.81     -3.2      -1. 
 Bq                    4.81     -3.2      -0.9 
 Bq                    4.81     -3.2      -0.8 
 Bq                    4.81     -3.2      -0.7 
 Bq                    4.81     -3.2      -0.6 
 Bq                    4.81     -3.2      -0.5 
 Bq                    4.81     -3.2      -0.4 
 Bq                    4.81     -3.2      -0.3 
 Bq                    4.81     -3.2      -0.2 
 Bq                    4.81     -3.2      -0.1 
 Bq                    4.81     -3.2       0. 
 Bq                    4.81     -3.2       0.1 
 Bq                    4.81     -3.2       0.2 
 Bq                    4.81     -3.2       0.3 
 Bq                    4.81     -3.2       0.4 
 Bq                    4.81     -3.2       0.5 
 Bq                    4.81     -3.2       0.6 
 Bq                    4.81     -3.2       0.7 
 Bq                    4.81     -3.2       0.8 
 Bq                    4.81     -3.2       0.9 
 Bq                    4.81     -3.2       1. 
 Bq                    4.81     -3.2       1.1 
 Bq                    4.81     -3.2       1.2 
 Bq                    4.81     -3.2       1.3 
 Bq                    4.81     -3.2       1.4 
 Bq                    4.81     -3.2       1.5 
 Bq                    4.81     -3.2       1.6 
 Bq                    4.81     -3.2       1.7 
 Bq                    4.81     -3.2       1.8 
 Bq                    4.81     -3.2       1.9 
 Bq                    4.81     -3.2       2. 
 Bq                    4.81     -3.1      -2. 
 Bq                    4.81     -3.1      -1.9 
 Bq                    4.81     -3.1      -1.8 
 Bq                    4.81     -3.1      -1.7 
 Bq                    4.81     -3.1      -1.6 
 Bq                    4.81     -3.1      -1.5 
 Bq                    4.81     -3.1      -1.4 
 Bq                    4.81     -3.1      -1.3 
 Bq                    4.81     -3.1      -1.2 
 Bq                    4.81     -3.1      -1.1 
 Bq                    4.81     -3.1      -1. 
 Bq                    4.81     -3.1      -0.9 
 Bq                    4.81     -3.1      -0.8 
 Bq                    4.81     -3.1      -0.7 
 Bq                    4.81     -3.1      -0.6 
 Bq                    4.81     -3.1      -0.5 
 Bq                    4.81     -3.1      -0.4 
 Bq                    4.81     -3.1      -0.3 
 Bq                    4.81     -3.1      -0.2 
 Bq                    4.81     -3.1      -0.1 
 Bq                    4.81     -3.1       0. 
 Bq                    4.81     -3.1       0.1 
 Bq                    4.81     -3.1       0.2 
 Bq                    4.81     -3.1       0.3 
 Bq                    4.81     -3.1       0.4 
 Bq                    4.81     -3.1       0.5 
 Bq                    4.81     -3.1       0.6 
 Bq                    4.81     -3.1       0.7 
 Bq                    4.81     -3.1       0.8 
 Bq                    4.81     -3.1       0.9 
 Bq                    4.81     -3.1       1. 
 Bq                    4.81     -3.1       1.1 
 Bq                    4.81     -3.1       1.2 
 Bq                    4.81     -3.1       1.3 
 Bq                    4.81     -3.1       1.4 
 Bq                    4.81     -3.1       1.5 
 Bq                    4.81     -3.1       1.6 
 Bq                    4.81     -3.1       1.7 
 Bq                    4.81     -3.1       1.8 
 Bq                    4.81     -3.1       1.9 
 Bq                    4.81     -3.1       2. 
 Bq                    4.81     -3.       -2. 
 Bq                    4.81     -3.       -1.9 
 Bq                    4.81     -3.       -1.8 
 Bq                    4.81     -3.       -1.7 
 Bq                    4.81     -3.       -1.6 
 Bq                    4.81     -3.       -1.5 
 Bq                    4.81     -3.       -1.4 
 Bq                    4.81     -3.       -1.3 
 Bq                    4.81     -3.       -1.2 
 Bq                    4.81     -3.       -1.1 
 Bq                    4.81     -3.       -1. 
 Bq                    4.81     -3.       -0.9 
 Bq                    4.81     -3.       -0.8 
 Bq                    4.81     -3.       -0.7 
 Bq                    4.81     -3.       -0.6 
 Bq                    4.81     -3.       -0.5 
 Bq                    4.81     -3.       -0.4 
 Bq                    4.81     -3.       -0.3 
 Bq                    4.81     -3.       -0.2 
 Bq                    4.81     -3.       -0.1 
 Bq                    4.81     -3.        0. 
 Bq                    4.81     -3.        0.1 
 Bq                    4.81     -3.        0.2 
 Bq                    4.81     -3.        0.3 
 Bq                    4.81     -3.        0.4 
 Bq                    4.81     -3.        0.5 
 Bq                    4.81     -3.        0.6 
 Bq                    4.81     -3.        0.7 
 Bq                    4.81     -3.        0.8 
 Bq                    4.81     -3.        0.9 
 Bq                    4.81     -3.        1. 
 Bq                    4.81     -3.        1.1 
 Bq                    4.81     -3.        1.2 
 Bq                    4.81     -3.        1.3 
 Bq                    4.81     -3.        1.4 
 Bq                    4.81     -3.        1.5 
 Bq                    4.81     -3.        1.6 
 Bq                    4.81     -3.        1.7 
 Bq                    4.81     -3.        1.8 
 Bq                    4.81     -3.        1.9 
 Bq                    4.81     -3.        2. 
 Bq                    4.81     -2.9      -2. 
 Bq                    4.81     -2.9      -1.9 
 Bq                    4.81     -2.9      -1.8 
 Bq                    4.81     -2.9      -1.7 
 Bq                    4.81     -2.9      -1.6 
 Bq                    4.81     -2.9      -1.5 
 Bq                    4.81     -2.9      -1.4 
 Bq                    4.81     -2.9      -1.3 
 Bq                    4.81     -2.9      -1.2 
 Bq                    4.81     -2.9      -1.1 
 Bq                    4.81     -2.9      -1. 
 Bq                    4.81     -2.9      -0.9 
 Bq                    4.81     -2.9      -0.8 
 Bq                    4.81     -2.9      -0.7 
 Bq                    4.81     -2.9      -0.6 
 Bq                    4.81     -2.9      -0.5 
 Bq                    4.81     -2.9      -0.4 
 Bq                    4.81     -2.9      -0.3 
 Bq                    4.81     -2.9      -0.2 
 Bq                    4.81     -2.9      -0.1 
 Bq                    4.81     -2.9       0. 
 Bq                    4.81     -2.9       0.1 
 Bq                    4.81     -2.9       0.2 
 Bq                    4.81     -2.9       0.3 
 Bq                    4.81     -2.9       0.4 
 Bq                    4.81     -2.9       0.5 
 Bq                    4.81     -2.9       0.6 
 Bq                    4.81     -2.9       0.7 
 Bq                    4.81     -2.9       0.8 
 Bq                    4.81     -2.9       0.9 
 Bq                    4.81     -2.9       1. 
 Bq                    4.81     -2.9       1.1 
 Bq                    4.81     -2.9       1.2 
 Bq                    4.81     -2.9       1.3 
 Bq                    4.81     -2.9       1.4 
 Bq                    4.81     -2.9       1.5 
 Bq                    4.81     -2.9       1.6 
 Bq                    4.81     -2.9       1.7 
 Bq                    4.81     -2.9       1.8 
 Bq                    4.81     -2.9       1.9 
 Bq                    4.81     -2.9       2. 
 Bq                    4.81     -2.8      -2. 
 Bq                    4.81     -2.8      -1.9 
 Bq                    4.81     -2.8      -1.8 
 Bq                    4.81     -2.8      -1.7 
 Bq                    4.81     -2.8      -1.6 
 Bq                    4.81     -2.8      -1.5 
 Bq                    4.81     -2.8      -1.4 
 Bq                    4.81     -2.8      -1.3 
 Bq                    4.81     -2.8      -1.2 
 Bq                    4.81     -2.8      -1.1 
 Bq                    4.81     -2.8      -1. 
 Bq                    4.81     -2.8      -0.9 
 Bq                    4.81     -2.8      -0.8 
 Bq                    4.81     -2.8      -0.7 
 Bq                    4.81     -2.8      -0.6 
 Bq                    4.81     -2.8      -0.5 
 Bq                    4.81     -2.8      -0.4 
 Bq                    4.81     -2.8      -0.3 
 Bq                    4.81     -2.8      -0.2 
 Bq                    4.81     -2.8      -0.1 
 Bq                    4.81     -2.8       0. 
 Bq                    4.81     -2.8       0.1 
 Bq                    4.81     -2.8       0.2 
 Bq                    4.81     -2.8       0.3 
 Bq                    4.81     -2.8       0.4 
 Bq                    4.81     -2.8       0.5 
 Bq                    4.81     -2.8       0.6 
 Bq                    4.81     -2.8       0.7 
 Bq                    4.81     -2.8       0.8 
 Bq                    4.81     -2.8       0.9 
 Bq                    4.81     -2.8       1. 
 Bq                    4.81     -2.8       1.1 
 Bq                    4.81     -2.8       1.2 
 Bq                    4.81     -2.8       1.3 
 Bq                    4.81     -2.8       1.4 
 Bq                    4.81     -2.8       1.5 
 Bq                    4.81     -2.8       1.6 
 Bq                    4.81     -2.8       1.7 
 Bq                    4.81     -2.8       1.8 
 Bq                    4.81     -2.8       1.9 
 Bq                    4.81     -2.8       2. 
 Bq                    4.81     -2.7      -2. 
 Bq                    4.81     -2.7      -1.9 
 Bq                    4.81     -2.7      -1.8 
 Bq                    4.81     -2.7      -1.7 
 Bq                    4.81     -2.7      -1.6 
 Bq                    4.81     -2.7      -1.5 
 Bq                    4.81     -2.7      -1.4 
 Bq                    4.81     -2.7      -1.3 
 Bq                    4.81     -2.7      -1.2 
 Bq                    4.81     -2.7      -1.1 
 Bq                    4.81     -2.7      -1. 
 Bq                    4.81     -2.7      -0.9 
 Bq                    4.81     -2.7      -0.8 
 Bq                    4.81     -2.7      -0.7 
 Bq                    4.81     -2.7      -0.6 
 Bq                    4.81     -2.7      -0.5 
 Bq                    4.81     -2.7      -0.4 
 Bq                    4.81     -2.7      -0.3 
 Bq                    4.81     -2.7      -0.2 
 Bq                    4.81     -2.7      -0.1 
 Bq                    4.81     -2.7       0. 
 Bq                    4.81     -2.7       0.1 
 Bq                    4.81     -2.7       0.2 
 Bq                    4.81     -2.7       0.3 
 Bq                    4.81     -2.7       0.4 
 Bq                    4.81     -2.7       0.5 
 Bq                    4.81     -2.7       0.6 
 Bq                    4.81     -2.7       0.7 
 Bq                    4.81     -2.7       0.8 
 Bq                    4.81     -2.7       0.9 
 Bq                    4.81     -2.7       1. 
 Bq                    4.81     -2.7       1.1 
 Bq                    4.81     -2.7       1.2 
 Bq                    4.81     -2.7       1.3 
 Bq                    4.81     -2.7       1.4 
 Bq                    4.81     -2.7       1.5 
 Bq                    4.81     -2.7       1.6 
 Bq                    4.81     -2.7       1.7 
 Bq                    4.81     -2.7       1.8 
 Bq                    4.81     -2.7       1.9 
 Bq                    4.81     -2.7       2. 
 Bq                    4.81     -2.6      -2. 
 Bq                    4.81     -2.6      -1.9 
 Bq                    4.81     -2.6      -1.8 
 Bq                    4.81     -2.6      -1.7 
 Bq                    4.81     -2.6      -1.6 
 Bq                    4.81     -2.6      -1.5 
 Bq                    4.81     -2.6      -1.4 
 Bq                    4.81     -2.6      -1.3 
 Bq                    4.81     -2.6      -1.2 
 Bq                    4.81     -2.6      -1.1 
 Bq                    4.81     -2.6      -1. 
 Bq                    4.81     -2.6      -0.9 
 Bq                    4.81     -2.6      -0.8 
 Bq                    4.81     -2.6      -0.7 
 Bq                    4.81     -2.6      -0.6 
 Bq                    4.81     -2.6      -0.5 
 Bq                    4.81     -2.6      -0.4 
 Bq                    4.81     -2.6      -0.3 
 Bq                    4.81     -2.6      -0.2 
 Bq                    4.81     -2.6      -0.1 
 Bq                    4.81     -2.6       0. 
 Bq                    4.81     -2.6       0.1 
 Bq                    4.81     -2.6       0.2 
 Bq                    4.81     -2.6       0.3 
 Bq                    4.81     -2.6       0.4 
 Bq                    4.81     -2.6       0.5 
 Bq                    4.81     -2.6       0.6 
 Bq                    4.81     -2.6       0.7 
 Bq                    4.81     -2.6       0.8 
 Bq                    4.81     -2.6       0.9 
 Bq                    4.81     -2.6       1. 
 Bq                    4.81     -2.6       1.1 
 Bq                    4.81     -2.6       1.2 
 Bq                    4.81     -2.6       1.3 
 Bq                    4.81     -2.6       1.4 
 Bq                    4.81     -2.6       1.5 
 Bq                    4.81     -2.6       1.6 
 Bq                    4.81     -2.6       1.7 
 Bq                    4.81     -2.6       1.8 
 Bq                    4.81     -2.6       1.9 
 Bq                    4.81     -2.6       2. 
 Bq                    4.81     -2.5      -2. 
 Bq                    4.81     -2.5      -1.9 
 Bq                    4.81     -2.5      -1.8 
 Bq                    4.81     -2.5      -1.7 
 Bq                    4.81     -2.5      -1.6 
 Bq                    4.81     -2.5      -1.5 
 Bq                    4.81     -2.5      -1.4 
 Bq                    4.81     -2.5      -1.3 
 Bq                    4.81     -2.5      -1.2 
 Bq                    4.81     -2.5      -1.1 
 Bq                    4.81     -2.5      -1. 
 Bq                    4.81     -2.5      -0.9 
 Bq                    4.81     -2.5      -0.8 
 Bq                    4.81     -2.5      -0.7 
 Bq                    4.81     -2.5      -0.6 
 Bq                    4.81     -2.5      -0.5 
 Bq                    4.81     -2.5      -0.4 
 Bq                    4.81     -2.5      -0.3 
 Bq                    4.81     -2.5      -0.2 
 Bq                    4.81     -2.5      -0.1 
 Bq                    4.81     -2.5       0. 
 Bq                    4.81     -2.5       0.1 
 Bq                    4.81     -2.5       0.2 
 Bq                    4.81     -2.5       0.3 
 Bq                    4.81     -2.5       0.4 
 Bq                    4.81     -2.5       0.5 
 Bq                    4.81     -2.5       0.6 
 Bq                    4.81     -2.5       0.7 
 Bq                    4.81     -2.5       0.8 
 Bq                    4.81     -2.5       0.9 
 Bq                    4.81     -2.5       1. 
 Bq                    4.81     -2.5       1.1 
 Bq                    4.81     -2.5       1.2 
 Bq                    4.81     -2.5       1.3 
 Bq                    4.81     -2.5       1.4 
 Bq                    4.81     -2.5       1.5 
 Bq                    4.81     -2.5       1.6 
 Bq                    4.81     -2.5       1.7 
 Bq                    4.81     -2.5       1.8 
 Bq                    4.81     -2.5       1.9 
 Bq                    4.81     -2.5       2. 
 Bq                    4.81     -2.4      -2. 
 Bq                    4.81     -2.4      -1.9 
 Bq                    4.81     -2.4      -1.8 
 Bq                    4.81     -2.4      -1.7 
 Bq                    4.81     -2.4      -1.6 
 Bq                    4.81     -2.4      -1.5 
 Bq                    4.81     -2.4      -1.4 
 Bq                    4.81     -2.4      -1.3 
 Bq                    4.81     -2.4      -1.2 
 Bq                    4.81     -2.4      -1.1 
 Bq                    4.81     -2.4      -1. 
 Bq                    4.81     -2.4      -0.9 
 Bq                    4.81     -2.4      -0.8 
 Bq                    4.81     -2.4      -0.7 
 Bq                    4.81     -2.4      -0.6 
 Bq                    4.81     -2.4      -0.5 
 Bq                    4.81     -2.4      -0.4 
 Bq                    4.81     -2.4      -0.3 
 Bq                    4.81     -2.4      -0.2 
 Bq                    4.81     -2.4      -0.1 
 Bq                    4.81     -2.4       0. 
 Bq                    4.81     -2.4       0.1 
 Bq                    4.81     -2.4       0.2 
 Bq                    4.81     -2.4       0.3 
 Bq                    4.81     -2.4       0.4 
 Bq                    4.81     -2.4       0.5 
 Bq                    4.81     -2.4       0.6 
 Bq                    4.81     -2.4       0.7 
 Bq                    4.81     -2.4       0.8 
 Bq                    4.81     -2.4       0.9 
 Bq                    4.81     -2.4       1. 
 Bq                    4.81     -2.4       1.1 
 Bq                    4.81     -2.4       1.2 
 Bq                    4.81     -2.4       1.3 
 Bq                    4.81     -2.4       1.4 
 Bq                    4.81     -2.4       1.5 
 Bq                    4.81     -2.4       1.6 
 Bq                    4.81     -2.4       1.7 
 Bq                    4.81     -2.4       1.8 
 Bq                    4.81     -2.4       1.9 
 Bq                    4.81     -2.4       2. 
 Bq                    4.81     -2.3      -2. 
 Bq                    4.81     -2.3      -1.9 
 Bq                    4.81     -2.3      -1.8 
 Bq                    4.81     -2.3      -1.7 
 Bq                    4.81     -2.3      -1.6 
 Bq                    4.81     -2.3      -1.5 
 Bq                    4.81     -2.3      -1.4 
 Bq                    4.81     -2.3      -1.3 
 Bq                    4.81     -2.3      -1.2 
 Bq                    4.81     -2.3      -1.1 
 Bq                    4.81     -2.3      -1. 
 Bq                    4.81     -2.3      -0.9 
 Bq                    4.81     -2.3      -0.8 
 Bq                    4.81     -2.3      -0.7 
 Bq                    4.81     -2.3      -0.6 
 Bq                    4.81     -2.3      -0.5 
 Bq                    4.81     -2.3      -0.4 
 Bq                    4.81     -2.3      -0.3 
 Bq                    4.81     -2.3      -0.2 
 Bq                    4.81     -2.3      -0.1 
 Bq                    4.81     -2.3       0. 
 Bq                    4.81     -2.3       0.1 
 Bq                    4.81     -2.3       0.2 
 Bq                    4.81     -2.3       0.3 
 Bq                    4.81     -2.3       0.4 
 Bq                    4.81     -2.3       0.5 
 Bq                    4.81     -2.3       0.6 
 Bq                    4.81     -2.3       0.7 
 Bq                    4.81     -2.3       0.8 
 Bq                    4.81     -2.3       0.9 
 Bq                    4.81     -2.3       1. 
 Bq                    4.81     -2.3       1.1 
 Bq                    4.81     -2.3       1.2 
 Bq                    4.81     -2.3       1.3 
 Bq                    4.81     -2.3       1.4 
 Bq                    4.81     -2.3       1.5 
 Bq                    4.81     -2.3       1.6 
 Bq                    4.81     -2.3       1.7 
 Bq                    4.81     -2.3       1.8 
 Bq                    4.81     -2.3       1.9 
 Bq                    4.81     -2.3       2. 
 Bq                    4.81     -2.2      -2. 
 Bq                    4.81     -2.2      -1.9 
 Bq                    4.81     -2.2      -1.8 
 Bq                    4.81     -2.2      -1.7 
 Bq                    4.81     -2.2      -1.6 
 Bq                    4.81     -2.2      -1.5 
 Bq                    4.81     -2.2      -1.4 
 Bq                    4.81     -2.2      -1.3 
 Bq                    4.81     -2.2      -1.2 
 Bq                    4.81     -2.2      -1.1 
 Bq                    4.81     -2.2      -1. 
 Bq                    4.81     -2.2      -0.9 
 Bq                    4.81     -2.2      -0.8 
 Bq                    4.81     -2.2      -0.7 
 Bq                    4.81     -2.2      -0.6 
 Bq                    4.81     -2.2      -0.5 
 Bq                    4.81     -2.2      -0.4 
 Bq                    4.81     -2.2      -0.3 
 Bq                    4.81     -2.2      -0.2 
 Bq                    4.81     -2.2      -0.1 
 Bq                    4.81     -2.2       0. 
 Bq                    4.81     -2.2       0.1 
 Bq                    4.81     -2.2       0.2 
 Bq                    4.81     -2.2       0.3 
 Bq                    4.81     -2.2       0.4 
 Bq                    4.81     -2.2       0.5 
 Bq                    4.81     -2.2       0.6 
 Bq                    4.81     -2.2       0.7 
 Bq                    4.81     -2.2       0.8 
 Bq                    4.81     -2.2       0.9 
 Bq                    4.81     -2.2       1. 
 Bq                    4.81     -2.2       1.1 
 Bq                    4.81     -2.2       1.2 
 Bq                    4.81     -2.2       1.3 
 Bq                    4.81     -2.2       1.4 
 Bq                    4.81     -2.2       1.5 
 Bq                    4.81     -2.2       1.6 
 Bq                    4.81     -2.2       1.7 
 Bq                    4.81     -2.2       1.8 
 Bq                    4.81     -2.2       1.9 
 Bq                    4.81     -2.2       2. 
 Bq                    4.81     -2.1      -2. 
 Bq                    4.81     -2.1      -1.9 
 Bq                    4.81     -2.1      -1.8 
 Bq                    4.81     -2.1      -1.7 
 Bq                    4.81     -2.1      -1.6 
 Bq                    4.81     -2.1      -1.5 
 Bq                    4.81     -2.1      -1.4 
 Bq                    4.81     -2.1      -1.3 
 Bq                    4.81     -2.1      -1.2 
 Bq                    4.81     -2.1      -1.1 
 Bq                    4.81     -2.1      -1. 
 Bq                    4.81     -2.1      -0.9 
 Bq                    4.81     -2.1      -0.8 
 Bq                    4.81     -2.1      -0.7 
 Bq                    4.81     -2.1      -0.6 
 Bq                    4.81     -2.1      -0.5 
 Bq                    4.81     -2.1      -0.4 
 Bq                    4.81     -2.1      -0.3 
 Bq                    4.81     -2.1      -0.2 
 Bq                    4.81     -2.1      -0.1 
 Bq                    4.81     -2.1       0. 
 Bq                    4.81     -2.1       0.1 
 Bq                    4.81     -2.1       0.2 
 Bq                    4.81     -2.1       0.3 
 Bq                    4.81     -2.1       0.4 
 Bq                    4.81     -2.1       0.5 
 Bq                    4.81     -2.1       0.6 
 Bq                    4.81     -2.1       0.7 
 Bq                    4.81     -2.1       0.8 
 Bq                    4.81     -2.1       0.9 
 Bq                    4.81     -2.1       1. 
 Bq                    4.81     -2.1       1.1 
 Bq                    4.81     -2.1       1.2 
 Bq                    4.81     -2.1       1.3 
 Bq                    4.81     -2.1       1.4 
 Bq                    4.81     -2.1       1.5 
 Bq                    4.81     -2.1       1.6 
 Bq                    4.81     -2.1       1.7 
 Bq                    4.81     -2.1       1.8 
 Bq                    4.81     -2.1       1.9 
 Bq                    4.81     -2.1       2. 
 Bq                    4.81     -2.       -2. 
 Bq                    4.81     -2.       -1.9 
 Bq                    4.81     -2.       -1.8 
 Bq                    4.81     -2.       -1.7 
 Bq                    4.81     -2.       -1.6 
 Bq                    4.81     -2.       -1.5 
 Bq                    4.81     -2.       -1.4 
 Bq                    4.81     -2.       -1.3 
 Bq                    4.81     -2.       -1.2 
 Bq                    4.81     -2.       -1.1 
 Bq                    4.81     -2.       -1. 
 Bq                    4.81     -2.       -0.9 
 Bq                    4.81     -2.       -0.8 
 Bq                    4.81     -2.       -0.7 
 Bq                    4.81     -2.       -0.6 
 Bq                    4.81     -2.       -0.5 
 Bq                    4.81     -2.       -0.4 
 Bq                    4.81     -2.       -0.3 
 Bq                    4.81     -2.       -0.2 
 Bq                    4.81     -2.       -0.1 
 Bq                    4.81     -2.        0. 
 Bq                    4.81     -2.        0.1 
 Bq                    4.81     -2.        0.2 
 Bq                    4.81     -2.        0.3 
 Bq                    4.81     -2.        0.4 
 Bq                    4.81     -2.        0.5 
 Bq                    4.81     -2.        0.6 
 Bq                    4.81     -2.        0.7 
 Bq                    4.81     -2.        0.8 
 Bq                    4.81     -2.        0.9 
 Bq                    4.81     -2.        1. 
 Bq                    4.81     -2.        1.1 
 Bq                    4.81     -2.        1.2 
 Bq                    4.81     -2.        1.3 
 Bq                    4.81     -2.        1.4 
 Bq                    4.81     -2.        1.5 
 Bq                    4.81     -2.        1.6 
 Bq                    4.81     -2.        1.7 
 Bq                    4.81     -2.        1.8 
 Bq                    4.81     -2.        1.9 
 Bq                    4.81     -2.        2. 
 Bq                    4.81     -1.9      -2. 
 Bq                    4.81     -1.9      -1.9 
 Bq                    4.81     -1.9      -1.8 
 Bq                    4.81     -1.9      -1.7 
 Bq                    4.81     -1.9      -1.6 
 Bq                    4.81     -1.9      -1.5 
 Bq                    4.81     -1.9      -1.4 
 Bq                    4.81     -1.9      -1.3 
 Bq                    4.81     -1.9      -1.2 
 Bq                    4.81     -1.9      -1.1 
 Bq                    4.81     -1.9      -1. 
 Bq                    4.81     -1.9      -0.9 
 Bq                    4.81     -1.9      -0.8 
 Bq                    4.81     -1.9      -0.7 
 Bq                    4.81     -1.9      -0.6 
 Bq                    4.81     -1.9      -0.5 
 Bq                    4.81     -1.9      -0.4 
 Bq                    4.81     -1.9      -0.3 
 Bq                    4.81     -1.9      -0.2 
 Bq                    4.81     -1.9      -0.1 
 Bq                    4.81     -1.9       0. 
 Bq                    4.81     -1.9       0.1 
 Bq                    4.81     -1.9       0.2 
 Bq                    4.81     -1.9       0.3 
 Bq                    4.81     -1.9       0.4 
 Bq                    4.81     -1.9       0.5 
 Bq                    4.81     -1.9       0.6 
 Bq                    4.81     -1.9       0.7 
 Bq                    4.81     -1.9       0.8 
 Bq                    4.81     -1.9       0.9 
 Bq                    4.81     -1.9       1. 
 Bq                    4.81     -1.9       1.1 
 Bq                    4.81     -1.9       1.2 
 Bq                    4.81     -1.9       1.3 
 Bq                    4.81     -1.9       1.4 
 Bq                    4.81     -1.9       1.5 
 Bq                    4.81     -1.9       1.6 
 Bq                    4.81     -1.9       1.7 
 Bq                    4.81     -1.9       1.8 
 Bq                    4.81     -1.9       1.9 
 Bq                    4.81     -1.9       2. 
 Bq                    4.81     -1.8      -2. 
 Bq                    4.81     -1.8      -1.9 
 Bq                    4.81     -1.8      -1.8 
 Bq                    4.81     -1.8      -1.7 
 Bq                    4.81     -1.8      -1.6 
 Bq                    4.81     -1.8      -1.5 
 Bq                    4.81     -1.8      -1.4 
 Bq                    4.81     -1.8      -1.3 
 Bq                    4.81     -1.8      -1.2 
 Bq                    4.81     -1.8      -1.1 
 Bq                    4.81     -1.8      -1. 
 Bq                    4.81     -1.8      -0.9 
 Bq                    4.81     -1.8      -0.8 
 Bq                    4.81     -1.8      -0.7 
 Bq                    4.81     -1.8      -0.6 
 Bq                    4.81     -1.8      -0.5 
 Bq                    4.81     -1.8      -0.4 
 Bq                    4.81     -1.8      -0.3 
 Bq                    4.81     -1.8      -0.2 
 Bq                    4.81     -1.8      -0.1 
 Bq                    4.81     -1.8       0. 
 Bq                    4.81     -1.8       0.1 
 Bq                    4.81     -1.8       0.2 
 Bq                    4.81     -1.8       0.3 
 Bq                    4.81     -1.8       0.4 
 Bq                    4.81     -1.8       0.5 
 Bq                    4.81     -1.8       0.6 
 Bq                    4.81     -1.8       0.7 
 Bq                    4.81     -1.8       0.8 
 Bq                    4.81     -1.8       0.9 
 Bq                    4.81     -1.8       1. 
 Bq                    4.81     -1.8       1.1 
 Bq                    4.81     -1.8       1.2 
 Bq                    4.81     -1.8       1.3 
 Bq                    4.81     -1.8       1.4 
 Bq                    4.81     -1.8       1.5 
 Bq                    4.81     -1.8       1.6 
 Bq                    4.81     -1.8       1.7 
 Bq                    4.81     -1.8       1.8 
 Bq                    4.81     -1.8       1.9 
 Bq                    4.81     -1.8       2. 
 Bq                    4.81     -1.7      -2. 
 Bq                    4.81     -1.7      -1.9 
 Bq                    4.81     -1.7      -1.8 
 Bq                    4.81     -1.7      -1.7 
 Bq                    4.81     -1.7      -1.6 
 Bq                    4.81     -1.7      -1.5 
 Bq                    4.81     -1.7      -1.4 
 Bq                    4.81     -1.7      -1.3 
 Bq                    4.81     -1.7      -1.2 
 Bq                    4.81     -1.7      -1.1 
 Bq                    4.81     -1.7      -1. 
 Bq                    4.81     -1.7      -0.9 
 Bq                    4.81     -1.7      -0.8 
 Bq                    4.81     -1.7      -0.7 
 Bq                    4.81     -1.7      -0.6 
 Bq                    4.81     -1.7      -0.5 
 Bq                    4.81     -1.7      -0.4 
 Bq                    4.81     -1.7      -0.3 
 Bq                    4.81     -1.7      -0.2 
 Bq                    4.81     -1.7      -0.1 
 Bq                    4.81     -1.7       0. 
 Bq                    4.81     -1.7       0.1 
 Bq                    4.81     -1.7       0.2 
 Bq                    4.81     -1.7       0.3 
 Bq                    4.81     -1.7       0.4 
 Bq                    4.81     -1.7       0.5 
 Bq                    4.81     -1.7       0.6 
 Bq                    4.81     -1.7       0.7 
 Bq                    4.81     -1.7       0.8 
 Bq                    4.81     -1.7       0.9 
 Bq                    4.81     -1.7       1. 
 Bq                    4.81     -1.7       1.1 
 Bq                    4.81     -1.7       1.2 
 Bq                    4.81     -1.7       1.3 
 Bq                    4.81     -1.7       1.4 
 Bq                    4.81     -1.7       1.5 
 Bq                    4.81     -1.7       1.6 
 Bq                    4.81     -1.7       1.7 
 Bq                    4.81     -1.7       1.8 
 Bq                    4.81     -1.7       1.9 
 Bq                    4.81     -1.7       2. 
 Bq                    4.81     -1.6      -2. 
 Bq                    4.81     -1.6      -1.9 
 Bq                    4.81     -1.6      -1.8 
 Bq                    4.81     -1.6      -1.7 
 Bq                    4.81     -1.6      -1.6 
 Bq                    4.81     -1.6      -1.5 
 Bq                    4.81     -1.6      -1.4 
 Bq                    4.81     -1.6      -1.3 
 Bq                    4.81     -1.6      -1.2 
 Bq                    4.81     -1.6      -1.1 
 Bq                    4.81     -1.6      -1. 
 Bq                    4.81     -1.6      -0.9 
 Bq                    4.81     -1.6      -0.8 
 Bq                    4.81     -1.6      -0.7 
 Bq                    4.81     -1.6      -0.6 
 Bq                    4.81     -1.6      -0.5 
 Bq                    4.81     -1.6      -0.4 
 Bq                    4.81     -1.6      -0.3 
 Bq                    4.81     -1.6      -0.2 
 Bq                    4.81     -1.6      -0.1 
 Bq                    4.81     -1.6       0. 
 Bq                    4.81     -1.6       0.1 
 Bq                    4.81     -1.6       0.2 
 Bq                    4.81     -1.6       0.3 
 Bq                    4.81     -1.6       0.4 
 Bq                    4.81     -1.6       0.5 
 Bq                    4.81     -1.6       0.6 
 Bq                    4.81     -1.6       0.7 
 Bq                    4.81     -1.6       0.8 
 Bq                    4.81     -1.6       0.9 
 Bq                    4.81     -1.6       1. 
 Bq                    4.81     -1.6       1.1 
 Bq                    4.81     -1.6       1.2 
 Bq                    4.81     -1.6       1.3 
 Bq                    4.81     -1.6       1.4 
 Bq                    4.81     -1.6       1.5 
 Bq                    4.81     -1.6       1.6 
 Bq                    4.81     -1.6       1.7 
 Bq                    4.81     -1.6       1.8 
 Bq                    4.81     -1.6       1.9 
 Bq                    4.81     -1.6       2. 
 Bq                    4.81     -1.5      -2. 
 Bq                    4.81     -1.5      -1.9 
 Bq                    4.81     -1.5      -1.8 
 Bq                    4.81     -1.5      -1.7 
 Bq                    4.81     -1.5      -1.6 
 Bq                    4.81     -1.5      -1.5 
 Bq                    4.81     -1.5      -1.4 
 Bq                    4.81     -1.5      -1.3 
 Bq                    4.81     -1.5      -1.2 
 Bq                    4.81     -1.5      -1.1 
 Bq                    4.81     -1.5      -1. 
 Bq                    4.81     -1.5      -0.9 
 Bq                    4.81     -1.5      -0.8 
 Bq                    4.81     -1.5      -0.7 
 Bq                    4.81     -1.5      -0.6 
 Bq                    4.81     -1.5      -0.5 
 Bq                    4.81     -1.5      -0.4 
 Bq                    4.81     -1.5      -0.3 
 Bq                    4.81     -1.5      -0.2 
 Bq                    4.81     -1.5      -0.1 
 Bq                    4.81     -1.5       0. 
 Bq                    4.81     -1.5       0.1 
 Bq                    4.81     -1.5       0.2 
 Bq                    4.81     -1.5       0.3 
 Bq                    4.81     -1.5       0.4 
 Bq                    4.81     -1.5       0.5 
 Bq                    4.81     -1.5       0.6 
 Bq                    4.81     -1.5       0.7 
 Bq                    4.81     -1.5       0.8 
 Bq                    4.81     -1.5       0.9 
 Bq                    4.81     -1.5       1. 
 Bq                    4.81     -1.5       1.1 
 Bq                    4.81     -1.5       1.2 
 Bq                    4.81     -1.5       1.3 
 Bq                    4.81     -1.5       1.4 
 Bq                    4.81     -1.5       1.5 
 Bq                    4.81     -1.5       1.6 
 Bq                    4.81     -1.5       1.7 
 Bq                    4.81     -1.5       1.8 
 Bq                    4.81     -1.5       1.9 
 Bq                    4.81     -1.5       2. 
 Bq                    4.81     -1.4      -2. 
 Bq                    4.81     -1.4      -1.9 
 Bq                    4.81     -1.4      -1.8 
 Bq                    4.81     -1.4      -1.7 
 Bq                    4.81     -1.4      -1.6 
 Bq                    4.81     -1.4      -1.5 
 Bq                    4.81     -1.4      -1.4 
 Bq                    4.81     -1.4      -1.3 
 Bq                    4.81     -1.4      -1.2 
 Bq                    4.81     -1.4      -1.1 
 Bq                    4.81     -1.4      -1. 
 Bq                    4.81     -1.4      -0.9 
 Bq                    4.81     -1.4      -0.8 
 Bq                    4.81     -1.4      -0.7 
 Bq                    4.81     -1.4      -0.6 
 Bq                    4.81     -1.4      -0.5 
 Bq                    4.81     -1.4      -0.4 
 Bq                    4.81     -1.4      -0.3 
 Bq                    4.81     -1.4      -0.2 
 Bq                    4.81     -1.4      -0.1 
 Bq                    4.81     -1.4       0. 
 Bq                    4.81     -1.4       0.1 
 Bq                    4.81     -1.4       0.2 
 Bq                    4.81     -1.4       0.3 
 Bq                    4.81     -1.4       0.4 
 Bq                    4.81     -1.4       0.5 
 Bq                    4.81     -1.4       0.6 
 Bq                    4.81     -1.4       0.7 
 Bq                    4.81     -1.4       0.8 
 Bq                    4.81     -1.4       0.9 
 Bq                    4.81     -1.4       1. 
 Bq                    4.81     -1.4       1.1 
 Bq                    4.81     -1.4       1.2 
 Bq                    4.81     -1.4       1.3 
 Bq                    4.81     -1.4       1.4 
 Bq                    4.81     -1.4       1.5 
 Bq                    4.81     -1.4       1.6 
 Bq                    4.81     -1.4       1.7 
 Bq                    4.81     -1.4       1.8 
 Bq                    4.81     -1.4       1.9 
 Bq                    4.81     -1.4       2. 
 Bq                    4.81     -1.3      -2. 
 Bq                    4.81     -1.3      -1.9 
 Bq                    4.81     -1.3      -1.8 
 Bq                    4.81     -1.3      -1.7 
 Bq                    4.81     -1.3      -1.6 
 Bq                    4.81     -1.3      -1.5 
 Bq                    4.81     -1.3      -1.4 
 Bq                    4.81     -1.3      -1.3 
 Bq                    4.81     -1.3      -1.2 
 Bq                    4.81     -1.3      -1.1 
 Bq                    4.81     -1.3      -1. 
 Bq                    4.81     -1.3      -0.9 
 Bq                    4.81     -1.3      -0.8 
 Bq                    4.81     -1.3      -0.7 
 Bq                    4.81     -1.3      -0.6 
 Bq                    4.81     -1.3      -0.5 
 Bq                    4.81     -1.3      -0.4 
 Bq                    4.81     -1.3      -0.3 
 Bq                    4.81     -1.3      -0.2 
 Bq                    4.81     -1.3      -0.1 
 Bq                    4.81     -1.3       0. 
 Bq                    4.81     -1.3       0.1 
 Bq                    4.81     -1.3       0.2 
 Bq                    4.81     -1.3       0.3 
 Bq                    4.81     -1.3       0.4 
 Bq                    4.81     -1.3       0.5 
 Bq                    4.81     -1.3       0.6 
 Bq                    4.81     -1.3       0.7 
 Bq                    4.81     -1.3       0.8 
 Bq                    4.81     -1.3       0.9 
 Bq                    4.81     -1.3       1. 
 Bq                    4.81     -1.3       1.1 
 Bq                    4.81     -1.3       1.2 
 Bq                    4.81     -1.3       1.3 
 Bq                    4.81     -1.3       1.4 
 Bq                    4.81     -1.3       1.5 
 Bq                    4.81     -1.3       1.6 
 Bq                    4.81     -1.3       1.7 
 Bq                    4.81     -1.3       1.8 
 Bq                    4.81     -1.3       1.9 
 Bq                    4.81     -1.3       2. 
 Bq                    4.81     -1.2      -2. 
 Bq                    4.81     -1.2      -1.9 
 Bq                    4.81     -1.2      -1.8 
 Bq                    4.81     -1.2      -1.7 
 Bq                    4.81     -1.2      -1.6 
 Bq                    4.81     -1.2      -1.5 
 Bq                    4.81     -1.2      -1.4 
 Bq                    4.81     -1.2      -1.3 
 Bq                    4.81     -1.2      -1.2 
 Bq                    4.81     -1.2      -1.1 
 Bq                    4.81     -1.2      -1. 
 Bq                    4.81     -1.2      -0.9 
 Bq                    4.81     -1.2      -0.8 
 Bq                    4.81     -1.2      -0.7 
 Bq                    4.81     -1.2      -0.6 
 Bq                    4.81     -1.2      -0.5 
 Bq                    4.81     -1.2      -0.4 
 Bq                    4.81     -1.2      -0.3 
 Bq                    4.81     -1.2      -0.2 
 Bq                    4.81     -1.2      -0.1 
 Bq                    4.81     -1.2       0. 
 Bq                    4.81     -1.2       0.1 
 Bq                    4.81     -1.2       0.2 
 Bq                    4.81     -1.2       0.3 
 Bq                    4.81     -1.2       0.4 
 Bq                    4.81     -1.2       0.5 
 Bq                    4.81     -1.2       0.6 
 Bq                    4.81     -1.2       0.7 
 Bq                    4.81     -1.2       0.8 
 Bq                    4.81     -1.2       0.9 
 Bq                    4.81     -1.2       1. 
 Bq                    4.81     -1.2       1.1 
 Bq                    4.81     -1.2       1.2 
 Bq                    4.81     -1.2       1.3 
 Bq                    4.81     -1.2       1.4 
 Bq                    4.81     -1.2       1.5 
 Bq                    4.81     -1.2       1.6 
 Bq                    4.81     -1.2       1.7 
 Bq                    4.81     -1.2       1.8 
 Bq                    4.81     -1.2       1.9 
 Bq                    4.81     -1.2       2. 
 Bq                    4.81     -1.1      -2. 
 Bq                    4.81     -1.1      -1.9 
 Bq                    4.81     -1.1      -1.8 
 Bq                    4.81     -1.1      -1.7 
 Bq                    4.81     -1.1      -1.6 
 Bq                    4.81     -1.1      -1.5 
 Bq                    4.81     -1.1      -1.4 
 Bq                    4.81     -1.1      -1.3 
 Bq                    4.81     -1.1      -1.2 
 Bq                    4.81     -1.1      -1.1 
 Bq                    4.81     -1.1      -1. 
 Bq                    4.81     -1.1      -0.9 
 Bq                    4.81     -1.1      -0.8 
 Bq                    4.81     -1.1      -0.7 
 Bq                    4.81     -1.1      -0.6 
 Bq                    4.81     -1.1      -0.5 
 Bq                    4.81     -1.1      -0.4 
 Bq                    4.81     -1.1      -0.3 
 Bq                    4.81     -1.1      -0.2 
 Bq                    4.81     -1.1      -0.1 
 Bq                    4.81     -1.1       0. 
 Bq                    4.81     -1.1       0.1 
 Bq                    4.81     -1.1       0.2 
 Bq                    4.81     -1.1       0.3 
 Bq                    4.81     -1.1       0.4 
 Bq                    4.81     -1.1       0.5 
 Bq                    4.81     -1.1       0.6 
 Bq                    4.81     -1.1       0.7 
 Bq                    4.81     -1.1       0.8 
 Bq                    4.81     -1.1       0.9 
 Bq                    4.81     -1.1       1. 
 Bq                    4.81     -1.1       1.1 
 Bq                    4.81     -1.1       1.2 
 Bq                    4.81     -1.1       1.3 
 Bq                    4.81     -1.1       1.4 
 Bq                    4.81     -1.1       1.5 
 Bq                    4.81     -1.1       1.6 
 Bq                    4.81     -1.1       1.7 
 Bq                    4.81     -1.1       1.8 
 Bq                    4.81     -1.1       1.9 
 Bq                    4.81     -1.1       2. 
 Bq                    4.81     -1.       -2. 
 Bq                    4.81     -1.       -1.9 
 Bq                    4.81     -1.       -1.8 
 Bq                    4.81     -1.       -1.7 
 Bq                    4.81     -1.       -1.6 
 Bq                    4.81     -1.       -1.5 
 Bq                    4.81     -1.       -1.4 
 Bq                    4.81     -1.       -1.3 
 Bq                    4.81     -1.       -1.2 
 Bq                    4.81     -1.       -1.1 
 Bq                    4.81     -1.       -1. 
 Bq                    4.81     -1.       -0.9 
 Bq                    4.81     -1.       -0.8 
 Bq                    4.81     -1.       -0.7 
 Bq                    4.81     -1.       -0.6 
 Bq                    4.81     -1.       -0.5 
 Bq                    4.81     -1.       -0.4 
 Bq                    4.81     -1.       -0.3 
 Bq                    4.81     -1.       -0.2 
 Bq                    4.81     -1.       -0.1 
 Bq                    4.81     -1.        0. 
 Bq                    4.81     -1.        0.1 
 Bq                    4.81     -1.        0.2 
 Bq                    4.81     -1.        0.3 
 Bq                    4.81     -1.        0.4 
 Bq                    4.81     -1.        0.5 
 Bq                    4.81     -1.        0.6 
 Bq                    4.81     -1.        0.7 
 Bq                    4.81     -1.        0.8 
 Bq                    4.81     -1.        0.9 
 Bq                    4.81     -1.        1. 
 Bq                    4.81     -1.        1.1 
 Bq                    4.81     -1.        1.2 
 Bq                    4.81     -1.        1.3 
 Bq                    4.81     -1.        1.4 
 Bq                    4.81     -1.        1.5 
 Bq                    4.81     -1.        1.6 
 Bq                    4.81     -1.        1.7 
 Bq                    4.81     -1.        1.8 
 Bq                    4.81     -1.        1.9 
 Bq                    4.81     -1.        2. 
 Bq                    4.81     -0.9      -2. 
 Bq                    4.81     -0.9      -1.9 
 Bq                    4.81     -0.9      -1.8 
 Bq                    4.81     -0.9      -1.7 
 Bq                    4.81     -0.9      -1.6 
 Bq                    4.81     -0.9      -1.5 
 Bq                    4.81     -0.9      -1.4 
 Bq                    4.81     -0.9      -1.3 
 Bq                    4.81     -0.9      -1.2 
 Bq                    4.81     -0.9      -1.1 
 Bq                    4.81     -0.9      -1. 
 Bq                    4.81     -0.9      -0.9 
 Bq                    4.81     -0.9      -0.8 
 Bq                    4.81     -0.9      -0.7 
 Bq                    4.81     -0.9      -0.6 
 Bq                    4.81     -0.9      -0.5 
 Bq                    4.81     -0.9      -0.4 
 Bq                    4.81     -0.9      -0.3 
 Bq                    4.81     -0.9      -0.2 
 Bq                    4.81     -0.9      -0.1 
 Bq                    4.81     -0.9       0. 
 Bq                    4.81     -0.9       0.1 
 Bq                    4.81     -0.9       0.2 
 Bq                    4.81     -0.9       0.3 
 Bq                    4.81     -0.9       0.4 
 Bq                    4.81     -0.9       0.5 
 Bq                    4.81     -0.9       0.6 
 Bq                    4.81     -0.9       0.7 
 Bq                    4.81     -0.9       0.8 
 Bq                    4.81     -0.9       0.9 
 Bq                    4.81     -0.9       1. 
 Bq                    4.81     -0.9       1.1 
 Bq                    4.81     -0.9       1.2 
 Bq                    4.81     -0.9       1.3 
 Bq                    4.81     -0.9       1.4 
 Bq                    4.81     -0.9       1.5 
 Bq                    4.81     -0.9       1.6 
 Bq                    4.81     -0.9       1.7 
 Bq                    4.81     -0.9       1.8 
 Bq                    4.81     -0.9       1.9 
 Bq                    4.81     -0.9       2. 
 Bq                    4.81     -0.8      -2. 
 Bq                    4.81     -0.8      -1.9 
 Bq                    4.81     -0.8      -1.8 
 Bq                    4.81     -0.8      -1.7 
 Bq                    4.81     -0.8      -1.6 
 Bq                    4.81     -0.8      -1.5 
 Bq                    4.81     -0.8      -1.4 
 Bq                    4.81     -0.8      -1.3 
 Bq                    4.81     -0.8      -1.2 
 Bq                    4.81     -0.8      -1.1 
 Bq                    4.81     -0.8      -1. 
 Bq                    4.81     -0.8      -0.9 
 Bq                    4.81     -0.8      -0.8 
 Bq                    4.81     -0.8      -0.7 
 Bq                    4.81     -0.8      -0.6 
 Bq                    4.81     -0.8      -0.5 
 Bq                    4.81     -0.8      -0.4 
 Bq                    4.81     -0.8      -0.3 
 Bq                    4.81     -0.8      -0.2 
 Bq                    4.81     -0.8      -0.1 
 Bq                    4.81     -0.8       0. 
 Bq                    4.81     -0.8       0.1 
 Bq                    4.81     -0.8       0.2 
 Bq                    4.81     -0.8       0.3 
 Bq                    4.81     -0.8       0.4 
 Bq                    4.81     -0.8       0.5 
 Bq                    4.81     -0.8       0.6 
 Bq                    4.81     -0.8       0.7 
 Bq                    4.81     -0.8       0.8 
 Bq                    4.81     -0.8       0.9 
 Bq                    4.81     -0.8       1. 
 Bq                    4.81     -0.8       1.1 
 Bq                    4.81     -0.8       1.2 
 Bq                    4.81     -0.8       1.3 
 Bq                    4.81     -0.8       1.4 
 Bq                    4.81     -0.8       1.5 
 Bq                    4.81     -0.8       1.6 
 Bq                    4.81     -0.8       1.7 
 Bq                    4.81     -0.8       1.8 
 Bq                    4.81     -0.8       1.9 
 Bq                    4.81     -0.8       2. 
 Bq                    4.81     -0.7      -2. 
 Bq                    4.81     -0.7      -1.9 
 Bq                    4.81     -0.7      -1.8 
 Bq                    4.81     -0.7      -1.7 
 Bq                    4.81     -0.7      -1.6 
 Bq                    4.81     -0.7      -1.5 
 Bq                    4.81     -0.7      -1.4 
 Bq                    4.81     -0.7      -1.3 
 Bq                    4.81     -0.7      -1.2 
 Bq                    4.81     -0.7      -1.1 
 Bq                    4.81     -0.7      -1. 
 Bq                    4.81     -0.7      -0.9 
 Bq                    4.81     -0.7      -0.8 
 Bq                    4.81     -0.7      -0.7 
 Bq                    4.81     -0.7      -0.6 
 Bq                    4.81     -0.7      -0.5 
 Bq                    4.81     -0.7      -0.4 
 Bq                    4.81     -0.7      -0.3 
 Bq                    4.81     -0.7      -0.2 
 Bq                    4.81     -0.7      -0.1 
 Bq                    4.81     -0.7       0. 
 Bq                    4.81     -0.7       0.1 
 Bq                    4.81     -0.7       0.2 
 Bq                    4.81     -0.7       0.3 
 Bq                    4.81     -0.7       0.4 
 Bq                    4.81     -0.7       0.5 
 Bq                    4.81     -0.7       0.6 
 Bq                    4.81     -0.7       0.7 
 Bq                    4.81     -0.7       0.8 
 Bq                    4.81     -0.7       0.9 
 Bq                    4.81     -0.7       1. 
 Bq                    4.81     -0.7       1.1 
 Bq                    4.81     -0.7       1.2 
 Bq                    4.81     -0.7       1.3 
 Bq                    4.81     -0.7       1.4 
 Bq                    4.81     -0.7       1.5 
 Bq                    4.81     -0.7       1.6 
 Bq                    4.81     -0.7       1.7 
 Bq                    4.81     -0.7       1.8 
 Bq                    4.81     -0.7       1.9 
 Bq                    4.81     -0.7       2. 
 Bq                    4.81     -0.6      -2. 
 Bq                    4.81     -0.6      -1.9 
 Bq                    4.81     -0.6      -1.8 
 Bq                    4.81     -0.6      -1.7 
 Bq                    4.81     -0.6      -1.6 
 Bq                    4.81     -0.6      -1.5 
 Bq                    4.81     -0.6      -1.4 
 Bq                    4.81     -0.6      -1.3 
 Bq                    4.81     -0.6      -1.2 
 Bq                    4.81     -0.6      -1.1 
 Bq                    4.81     -0.6      -1. 
 Bq                    4.81     -0.6      -0.9 
 Bq                    4.81     -0.6      -0.8 
 Bq                    4.81     -0.6      -0.7 
 Bq                    4.81     -0.6      -0.6 
 Bq                    4.81     -0.6      -0.5 
 Bq                    4.81     -0.6      -0.4 
 Bq                    4.81     -0.6      -0.3 
 Bq                    4.81     -0.6      -0.2 
 Bq                    4.81     -0.6      -0.1 
[...]
 .91,1.5,1.4\Bq,0,4.91,1.5,1.5\Bq,0,4.91,1.5,1.6\Bq,0,4.91,1.5,1.7\Bq,0
 ,4.91,1.5,1.8\Bq,0,4.91,1.5,1.9\Bq,0,4.91,1.5,2.\Bq,0,4.91,1.6,-2.\Bq,
 0,4.91,1.6,-1.9\Bq,0,4.91,1.6,-1.8\Bq,0,4.91,1.6,-1.7\Bq,0,4.91,1.6,-1
 .6\Bq,0,4.91,1.6,-1.5\Bq,0,4.91,1.6,-1.4\Bq,0,4.91,1.6,-1.3\Bq,0,4.91,
 1.6,-1.2\Bq,0,4.91,1.6,-1.1\Bq,0,4.91,1.6,-1.\Bq,0,4.91,1.6,-0.9\Bq,0,
 4.91,1.6,-0.8\Bq,0,4.91,1.6,-0.7\Bq,0,4.91,1.6,-0.6\Bq,0,4.91,1.6,-0.5
 \Bq,0,4.91,1.6,-0.4\Bq,0,4.91,1.6,-0.3\Bq,0,4.91,1.6,-0.2\Bq,0,4.91,1.
 6,-0.1\Bq,0,4.91,1.6,0.\Bq,0,4.91,1.6,0.1\Bq,0,4.91,1.6,0.2\Bq,0,4.91,
 1.6,0.3\Bq,0,4.91,1.6,0.4\Bq,0,4.91,1.6,0.5\Bq,0,4.91,1.6,0.6\Bq,0,4.9
 1,1.6,0.7\Bq,0,4.91,1.6,0.8\Bq,0,4.91,1.6,0.9\Bq,0,4.91,1.6,1.\Bq,0,4.
 91,1.6,1.1\Bq,0,4.91,1.6,1.2\Bq,0,4.91,1.6,1.3\Bq,0,4.91,1.6,1.4\Bq,0,
 4.91,1.6,1.5\Bq,0,4.91,1.6,1.6\Bq,0,4.91,1.6,1.7\Bq,0,4.91,1.6,1.8\Bq,
 0,4.91,1.6,1.9\Bq,0,4.91,1.6,2.\Bq,0,4.91,1.7,-2.\Bq,0,4.91,1.7,-1.9\B
 q,0,4.91,1.7,-1.8\Bq,0,4.91,1.7,-1.7\Bq,0,4.91,1.7,-1.6\Bq,0,4.91,1.7,
 -1.5\Bq,0,4.91,1.7,-1.4\Bq,0,4.91,1.7,-1.3\Bq,0,4.91,1.7,-1.2\Bq,0,4.9
 1,1.7,-1.1\Bq,0,4.91,1.7,-1.\Bq,0,4.91,1.7,-0.9\Bq,0,4.91,1.7,-0.8\Bq,
 0,4.91,1.7,-0.7\Bq,0,4.91,1.7,-0.6\Bq,0,4.91,1.7,-0.5\Bq,0,4.91,1.7,-0
 .4\Bq,0,4.91,1.7,-0.3\Bq,0,4.91,1.7,-0.2\Bq,0,4.91,1.7,-0.1\Bq,0,4.91,
 1.7,0.\Bq,0,4.91,1.7,0.1\Bq,0,4.91,1.7,0.2\Bq,0,4.91,1.7,0.3\Bq,0,4.91
 ,1.7,0.4\Bq,0,4.91,1.7,0.5\Bq,0,4.91,1.7,0.6\Bq,0,4.91,1.7,0.7\Bq,0,4.
 91,1.7,0.8\Bq,0,4.91,1.7,0.9\Bq,0,4.91,1.7,1.\Bq,0,4.91,1.7,1.1\Bq,0,4
 .91,1.7,1.2\Bq,0,4.91,1.7,1.3\Bq,0,4.91,1.7,1.4\Bq,0,4.91,1.7,1.5\Bq,0
 ,4.91,1.7,1.6\Bq,0,4.91,1.7,1.7\Bq,0,4.91,1.7,1.8\Bq,0,4.91,1.7,1.9\Bq
 ,0,4.91,1.7,2.\Bq,0,4.91,1.8,-2.\Bq,0,4.91,1.8,-1.9\Bq,0,4.91,1.8,-1.8
 \Bq,0,4.91,1.8,-1.7\Bq,0,4.91,1.8,-1.6\Bq,0,4.91,1.8,-1.5\Bq,0,4.91,1.
 8,-1.4\Bq,0,4.91,1.8,-1.3\Bq,0,4.91,1.8,-1.2\Bq,0,4.91,1.8,-1.1\Bq,0,4
 .91,1.8,-1.\Bq,0,4.91,1.8,-0.9\Bq,0,4.91,1.8,-0.8\Bq,0,4.91,1.8,-0.7\B
 q,0,4.91,1.8,-0.6\Bq,0,4.91,1.8,-0.5\Bq,0,4.91,1.8,-0.4\Bq,0,4.91,1.8,
 -0.3\Bq,0,4.91,1.8,-0.2\Bq,0,4.91,1.8,-0.1\Bq,0,4.91,1.8,0.\Bq,0,4.91,
 1.8,0.1\Bq,0,4.91,1.8,0.2\Bq,0,4.91,1.8,0.3\Bq,0,4.91,1.8,0.4\Bq,0,4.9
 1,1.8,0.5\Bq,0,4.91,1.8,0.6\Bq,0,4.91,1.8,0.7\Bq,0,4.91,1.8,0.8\Bq,0,4
 .91,1.8,0.9\Bq,0,4.91,1.8,1.\Bq,0,4.91,1.8,1.1\Bq,0,4.91,1.8,1.2\Bq,0,
 4.91,1.8,1.3\Bq,0,4.91,1.8,1.4\Bq,0,4.91,1.8,1.5\Bq,0,4.91,1.8,1.6\Bq,
 0,4.91,1.8,1.7\Bq,0,4.91,1.8,1.8\Bq,0,4.91,1.8,1.9\Bq,0,4.91,1.8,2.\Bq
 ,0,4.91,1.9,-2.\Bq,0,4.91,1.9,-1.9\Bq,0,4.91,1.9,-1.8\Bq,0,4.91,1.9,-1
 .7\Bq,0,4.91,1.9,-1.6\Bq,0,4.91,1.9,-1.5\Bq,0,4.91,1.9,-1.4\Bq,0,4.91,
 1.9,-1.3\Bq,0,4.91,1.9,-1.2\Bq,0,4.91,1.9,-1.1\Bq,0,4.91,1.9,-1.\Bq,0,
 4.91,1.9,-0.9\Bq,0,4.91,1.9,-0.8\Bq,0,4.91,1.9,-0.7\Bq,0,4.91,1.9,-0.6
 \Bq,0,4.91,1.9,-0.5\Bq,0,4.91,1.9,-0.4\Bq,0,4.91,1.9,-0.3\Bq,0,4.91,1.
 9,-0.2\Bq,0,4.91,1.9,-0.1\Bq,0,4.91,1.9,0.\Bq,0,4.91,1.9,0.1\Bq,0,4.91
 ,1.9,0.2\Bq,0,4.91,1.9,0.3\Bq,0,4.91,1.9,0.4\Bq,0,4.91,1.9,0.5\Bq,0,4.
 91,1.9,0.6\Bq,0,4.91,1.9,0.7\Bq,0,4.91,1.9,0.8\Bq,0,4.91,1.9,0.9\Bq,0,
 4.91,1.9,1.\Bq,0,4.91,1.9,1.1\Bq,0,4.91,1.9,1.2\Bq,0,4.91,1.9,1.3\Bq,0
 ,4.91,1.9,1.4\Bq,0,4.91,1.9,1.5\Bq,0,4.91,1.9,1.6\Bq,0,4.91,1.9,1.7\Bq
 ,0,4.91,1.9,1.8\Bq,0,4.91,1.9,1.9\Bq,0,4.91,1.9,2.\Bq,0,4.91,2.,-2.\Bq
 ,0,4.91,2.,-1.9\Bq,0,4.91,2.,-1.8\Bq,0,4.91,2.,-1.7\Bq,0,4.91,2.,-1.6\
 Bq,0,4.91,2.,-1.5\Bq,0,4.91,2.,-1.4\Bq,0,4.91,2.,-1.3\Bq,0,4.91,2.,-1.
 2\Bq,0,4.91,2.,-1.1\Bq,0,4.91,2.,-1.\Bq,0,4.91,2.,-0.9\Bq,0,4.91,2.,-0
 .8\Bq,0,4.91,2.,-0.7\Bq,0,4.91,2.,-0.6\Bq,0,4.91,2.,-0.5\Bq,0,4.91,2.,
 -0.4\Bq,0,4.91,2.,-0.3\Bq,0,4.91,2.,-0.2\Bq,0,4.91,2.,-0.1\Bq,0,4.91,2
 .,0.\Bq,0,4.91,2.,0.1\Bq,0,4.91,2.,0.2\Bq,0,4.91,2.,0.3\Bq,0,4.91,2.,0
 .4\Bq,0,4.91,2.,0.5\Bq,0,4.91,2.,0.6\Bq,0,4.91,2.,0.7\Bq,0,4.91,2.,0.8
 \Bq,0,4.91,2.,0.9\Bq,0,4.91,2.,1.\Bq,0,4.91,2.,1.1\Bq,0,4.91,2.,1.2\Bq
 ,0,4.91,2.,1.3\Bq,0,4.91,2.,1.4\Bq,0,4.91,2.,1.5\Bq,0,4.91,2.,1.6\Bq,0
 ,4.91,2.,1.7\Bq,0,4.91,2.,1.8\Bq,0,4.91,2.,1.9\Bq,0,4.91,2.,2.\Bq,0,4.
 91,2.1,-2.\Bq,0,4.91,2.1,-1.9\Bq,0,4.91,2.1,-1.8\Bq,0,4.91,2.1,-1.7\Bq
 ,0,4.91,2.1,-1.6\Bq,0,4.91,2.1,-1.5\Bq,0,4.91,2.1,-1.4\Bq,0,4.91,2.1,-
 1.3\Bq,0,4.91,2.1,-1.2\Bq,0,4.91,2.1,-1.1\Bq,0,4.91,2.1,-1.\Bq,0,4.91,
 2.1,-0.9\Bq,0,4.91,2.1,-0.8\Bq,0,4.91,2.1,-0.7\Bq,0,4.91,2.1,-0.6\Bq,0
 ,4.91,2.1,-0.5\Bq,0,4.91,2.1,-0.4\Bq,0,4.91,2.1,-0.3\Bq,0,4.91,2.1,-0.
 2\Bq,0,4.91,2.1,-0.1\Bq,0,4.91,2.1,0.\Bq,0,4.91,2.1,0.1\Bq,0,4.91,2.1,
 0.2\Bq,0,4.91,2.1,0.3\Bq,0,4.91,2.1,0.4\Bq,0,4.91,2.1,0.5\Bq,0,4.91,2.
 1,0.6\Bq,0,4.91,2.1,0.7\Bq,0,4.91,2.1,0.8\Bq,0,4.91,2.1,0.9\Bq,0,4.91,
 2.1,1.\Bq,0,4.91,2.1,1.1\Bq,0,4.91,2.1,1.2\Bq,0,4.91,2.1,1.3\Bq,0,4.91
 ,2.1,1.4\Bq,0,4.91,2.1,1.5\Bq,0,4.91,2.1,1.6\Bq,0,4.91,2.1,1.7\Bq,0,4.
 91,2.1,1.8\Bq,0,4.91,2.1,1.9\Bq,0,4.91,2.1,2.\Bq,0,4.91,2.2,-2.\Bq,0,4
 .91,2.2,-1.9\Bq,0,4.91,2.2,-1.8\Bq,0,4.91,2.2,-1.7\Bq,0,4.91,2.2,-1.6\
 Bq,0,4.91,2.2,-1.5\Bq,0,4.91,2.2,-1.4\Bq,0,4.91,2.2,-1.3\Bq,0,4.91,2.2
 ,-1.2\Bq,0,4.91,2.2,-1.1\Bq,0,4.91,2.2,-1.\Bq,0,4.91,2.2,-0.9\Bq,0,4.9
 1,2.2,-0.8\Bq,0,4.91,2.2,-0.7\Bq,0,4.91,2.2,-0.6\Bq,0,4.91,2.2,-0.5\Bq
 ,0,4.91,2.2,-0.4\Bq,0,4.91,2.2,-0.3\Bq,0,4.91,2.2,-0.2\Bq,0,4.91,2.2,-
 0.1\Bq,0,4.91,2.2,0.\Bq,0,4.91,2.2,0.1\Bq,0,4.91,2.2,0.2\Bq,0,4.91,2.2
 ,0.3\Bq,0,4.91,2.2,0.4\Bq,0,4.91,2.2,0.5\Bq,0,4.91,2.2,0.6\Bq,0,4.91,2
 .2,0.7\Bq,0,4.91,2.2,0.8\Bq,0,4.91,2.2,0.9\Bq,0,4.91,2.2,1.\Bq,0,4.91,
 2.2,1.1\Bq,0,4.91,2.2,1.2\Bq,0,4.91,2.2,1.3\Bq,0,4.91,2.2,1.4\Bq,0,4.9
 1,2.2,1.5\Bq,0,4.91,2.2,1.6\Bq,0,4.91,2.2,1.7\Bq,0,4.91,2.2,1.8\Bq,0,4
 .91,2.2,1.9\Bq,0,4.91,2.2,2.\Bq,0,4.91,2.3,-2.\Bq,0,4.91,2.3,-1.9\Bq,0
 ,4.91,2.3,-1.8\Bq,0,4.91,2.3,-1.7\Bq,0,4.91,2.3,-1.6\Bq,0,4.91,2.3,-1.
 5\Bq,0,4.91,2.3,-1.4\Bq,0,4.91,2.3,-1.3\Bq,0,4.91,2.3,-1.2\Bq,0,4.91,2
 .3,-1.1\Bq,0,4.91,2.3,-1.\Bq,0,4.91,2.3,-0.9\Bq,0,4.91,2.3,-0.8\Bq,0,4
 .91,2.3,-0.7\Bq,0,4.91,2.3,-0.6\Bq,0,4.91,2.3,-0.5\Bq,0,4.91,2.3,-0.4\
 Bq,0,4.91,2.3,-0.3\Bq,0,4.91,2.3,-0.2\Bq,0,4.91,2.3,-0.1\Bq,0,4.91,2.3
 ,0.\Bq,0,4.91,2.3,0.1\Bq,0,4.91,2.3,0.2\Bq,0,4.91,2.3,0.3\Bq,0,4.91,2.
 3,0.4\Bq,0,4.91,2.3,0.5\Bq,0,4.91,2.3,0.6\Bq,0,4.91,2.3,0.7\Bq,0,4.91,
 2.3,0.8\Bq,0,4.91,2.3,0.9\Bq,0,4.91,2.3,1.\Bq,0,4.91,2.3,1.1\Bq,0,4.91
 ,2.3,1.2\Bq,0,4.91,2.3,1.3\Bq,0,4.91,2.3,1.4\Bq,0,4.91,2.3,1.5\Bq,0,4.
 91,2.3,1.6\Bq,0,4.91,2.3,1.7\Bq,0,4.91,2.3,1.8\Bq,0,4.91,2.3,1.9\Bq,0,
 4.91,2.3,2.\Bq,0,4.91,2.4,-2.\Bq,0,4.91,2.4,-1.9\Bq,0,4.91,2.4,-1.8\Bq
 ,0,4.91,2.4,-1.7\Bq,0,4.91,2.4,-1.6\Bq,0,4.91,2.4,-1.5\Bq,0,4.91,2.4,-
 1.4\Bq,0,4.91,2.4,-1.3\Bq,0,4.91,2.4,-1.2\Bq,0,4.91,2.4,-1.1\Bq,0,4.91
 ,2.4,-1.\Bq,0,4.91,2.4,-0.9\Bq,0,4.91,2.4,-0.8\Bq,0,4.91,2.4,-0.7\Bq,0
 ,4.91,2.4,-0.6\Bq,0,4.91,2.4,-0.5\Bq,0,4.91,2.4,-0.4\Bq,0,4.91,2.4,-0.
 3\Bq,0,4.91,2.4,-0.2\Bq,0,4.91,2.4,-0.1\Bq,0,4.91,2.4,0.\Bq,0,4.91,2.4
 ,0.1\Bq,0,4.91,2.4,0.2\Bq,0,4.91,2.4,0.3\Bq,0,4.91,2.4,0.4\Bq,0,4.91,2
 .4,0.5\Bq,0,4.91,2.4,0.6\Bq,0,4.91,2.4,0.7\Bq,0,4.91,2.4,0.8\Bq,0,4.91
 ,2.4,0.9\Bq,0,4.91,2.4,1.\Bq,0,4.91,2.4,1.1\Bq,0,4.91,2.4,1.2\Bq,0,4.9
 1,2.4,1.3\Bq,0,4.91,2.4,1.4\Bq,0,4.91,2.4,1.5\Bq,0,4.91,2.4,1.6\Bq,0,4
 .91,2.4,1.7\Bq,0,4.91,2.4,1.8\Bq,0,4.91,2.4,1.9\Bq,0,4.91,2.4,2.\Bq,0,
 4.91,2.5,-2.\Bq,0,4.91,2.5,-1.9\Bq,0,4.91,2.5,-1.8\Bq,0,4.91,2.5,-1.7\
 Bq,0,4.91,2.5,-1.6\Bq,0,4.91,2.5,-1.5\Bq,0,4.91,2.5,-1.4\Bq,0,4.91,2.5
 ,-1.3\Bq,0,4.91,2.5,-1.2\Bq,0,4.91,2.5,-1.1\Bq,0,4.91,2.5,-1.\Bq,0,4.9
 1,2.5,-0.9\Bq,0,4.91,2.5,-0.8\Bq,0,4.91,2.5,-0.7\Bq,0,4.91,2.5,-0.6\Bq
 ,0,4.91,2.5,-0.5\Bq,0,4.91,2.5,-0.4\Bq,0,4.91,2.5,-0.3\Bq,0,4.91,2.5,-
 0.2\Bq,0,4.91,2.5,-0.1\Bq,0,4.91,2.5,0.\Bq,0,4.91,2.5,0.1\Bq,0,4.91,2.
 5,0.2\Bq,0,4.91,2.5,0.3\Bq,0,4.91,2.5,0.4\Bq,0,4.91,2.5,0.5\Bq,0,4.91,
 2.5,0.6\Bq,0,4.91,2.5,0.7\Bq,0,4.91,2.5,0.8\Bq,0,4.91,2.5,0.9\Bq,0,4.9
 1,2.5,1.\Bq,0,4.91,2.5,1.1\Bq,0,4.91,2.5,1.2\Bq,0,4.91,2.5,1.3\Bq,0,4.
 91,2.5,1.4\Bq,0,4.91,2.5,1.5\Bq,0,4.91,2.5,1.6\Bq,0,4.91,2.5,1.7\Bq,0,
 4.91,2.5,1.8\Bq,0,4.91,2.5,1.9\Bq,0,4.91,2.5,2.\Bq,0,4.91,2.6,-2.\Bq,0
 ,4.91,2.6,-1.9\Bq,0,4.91,2.6,-1.8\Bq,0,4.91,2.6,-1.7\Bq,0,4.91,2.6,-1.
 6\Bq,0,4.91,2.6,-1.5\Bq,0,4.91,2.6,-1.4\Bq,0,4.91,2.6,-1.3\Bq,0,4.91,2
 .6,-1.2\Bq,0,4.91,2.6,-1.1\Bq,0,4.91,2.6,-1.\Bq,0,4.91,2.6,-0.9\Bq,0,4
 .91,2.6,-0.8\Bq,0,4.91,2.6,-0.7\Bq,0,4.91,2.6,-0.6\Bq,0,4.91,2.6,-0.5\
 Bq,0,4.91,2.6,-0.4\Bq,0,4.91,2.6,-0.3\Bq,0,4.91,2.6,-0.2\Bq,0,4.91,2.6
 ,-0.1\Bq,0,4.91,2.6,0.\Bq,0,4.91,2.6,0.1\Bq,0,4.91,2.6,0.2\Bq,0,4.91,2
 .6,0.3\Bq,0,4.91,2.6,0.4\Bq,0,4.91,2.6,0.5\Bq,0,4.91,2.6,0.6\Bq,0,4.91
 ,2.6,0.7\Bq,0,4.91,2.6,0.8\Bq,0,4.91,2.6,0.9\Bq,0,4.91,2.6,1.\Bq,0,4.9
 1,2.6,1.1\Bq,0,4.91,2.6,1.2\Bq,0,4.91,2.6,1.3\Bq,0,4.91,2.6,1.4\Bq,0,4
 .91,2.6,1.5\Bq,0,4.91,2.6,1.6\Bq,0,4.91,2.6,1.7\Bq,0,4.91,2.6,1.8\Bq,0
 ,4.91,2.6,1.9\Bq,0,4.91,2.6,2.\Bq,0,4.91,2.7,-2.\Bq,0,4.91,2.7,-1.9\Bq
 ,0,4.91,2.7,-1.8\Bq,0,4.91,2.7,-1.7\Bq,0,4.91,2.7,-1.6\Bq,0,4.91,2.7,-
 1.5\Bq,0,4.91,2.7,-1.4\Bq,0,4.91,2.7,-1.3\Bq,0,4.91,2.7,-1.2\Bq,0,4.91
 ,2.7,-1.1\Bq,0,4.91,2.7,-1.\Bq,0,4.91,2.7,-0.9\Bq,0,4.91,2.7,-0.8\Bq,0
 ,4.91,2.7,-0.7\Bq,0,4.91,2.7,-0.6\Bq,0,4.91,2.7,-0.5\Bq,0,4.91,2.7,-0.
 4\Bq,0,4.91,2.7,-0.3\Bq,0,4.91,2.7,-0.2\Bq,0,4.91,2.7,-0.1\Bq,0,4.91,2
 .7,0.\Bq,0,4.91,2.7,0.1\Bq,0,4.91,2.7,0.2\Bq,0,4.91,2.7,0.3\Bq,0,4.91,
 2.7,0.4\Bq,0,4.91,2.7,0.5\Bq,0,4.91,2.7,0.6\Bq,0,4.91,2.7,0.7\Bq,0,4.9
 1,2.7,0.8\Bq,0,4.91,2.7,0.9\Bq,0,4.91,2.7,1.\Bq,0,4.91,2.7,1.1\Bq,0,4.
 91,2.7,1.2\Bq,0,4.91,2.7,1.3\Bq,0,4.91,2.7,1.4\Bq,0,4.91,2.7,1.5\Bq,0,
 4.91,2.7,1.6\Bq,0,4.91,2.7,1.7\Bq,0,4.91,2.7,1.8\Bq,0,4.91,2.7,1.9\Bq,
 0,4.91,2.7,2.\Bq,0,4.91,2.8,-2.\Bq,0,4.91,2.8,-1.9\Bq,0,4.91,2.8,-1.8\
 Bq,0,4.91,2.8,-1.7\Bq,0,4.91,2.8,-1.6\Bq,0,4.91,2.8,-1.5\Bq,0,4.91,2.8
 ,-1.4\Bq,0,4.91,2.8,-1.3\Bq,0,4.91,2.8,-1.2\Bq,0,4.91,2.8,-1.1\Bq,0,4.
 91,2.8,-1.\Bq,0,4.91,2.8,-0.9\Bq,0,4.91,2.8,-0.8\Bq,0,4.91,2.8,-0.7\Bq
 ,0,4.91,2.8,-0.6\Bq,0,4.91,2.8,-0.5\Bq,0,4.91,2.8,-0.4\Bq,0,4.91,2.8,-
 0.3\Bq,0,4.91,2.8,-0.2\Bq,0,4.91,2.8,-0.1\Bq,0,4.91,2.8,0.\Bq,0,4.91,2
 .8,0.1\Bq,0,4.91,2.8,0.2\Bq,0,4.91,2.8,0.3\Bq,0,4.91,2.8,0.4\Bq,0,4.91
 ,2.8,0.5\Bq,0,4.91,2.8,0.6\Bq,0,4.91,2.8,0.7\Bq,0,4.91,2.8,0.8\Bq,0,4.
 91,2.8,0.9\Bq,0,4.91,2.8,1.\Bq,0,4.91,2.8,1.1\Bq,0,4.91,2.8,1.2\Bq,0,4
 .91,2.8,1.3\Bq,0,4.91,2.8,1.4\Bq,0,4.91,2.8,1.5\Bq,0,4.91,2.8,1.6\Bq,0
 ,4.91,2.8,1.7\Bq,0,4.91,2.8,1.8\Bq,0,4.91,2.8,1.9\Bq,0,4.91,2.8,2.\Bq,
 0,4.91,2.9,-2.\Bq,0,4.91,2.9,-1.9\Bq,0,4.91,2.9,-1.8\Bq,0,4.91,2.9,-1.
 7\Bq,0,4.91,2.9,-1.6\Bq,0,4.91,2.9,-1.5\Bq,0,4.91,2.9,-1.4\Bq,0,4.91,2
 .9,-1.3\Bq,0,4.91,2.9,-1.2\Bq,0,4.91,2.9,-1.1\Bq,0,4.91,2.9,-1.\Bq,0,4
 .91,2.9,-0.9\Bq,0,4.91,2.9,-0.8\Bq,0,4.91,2.9,-0.7\Bq,0,4.91,2.9,-0.6\
 Bq,0,4.91,2.9,-0.5\Bq,0,4.91,2.9,-0.4\Bq,0,4.91,2.9,-0.3\Bq,0,4.91,2.9
 ,-0.2\Bq,0,4.91,2.9,-0.1\Bq,0,4.91,2.9,0.\Bq,0,4.91,2.9,0.1\Bq,0,4.91,
 2.9,0.2\Bq,0,4.91,2.9,0.3\Bq,0,4.91,2.9,0.4\Bq,0,4.91,2.9,0.5\Bq,0,4.9
 1,2.9,0.6\Bq,0,4.91,2.9,0.7\Bq,0,4.91,2.9,0.8\Bq,0,4.91,2.9,0.9\Bq,0,4
 .91,2.9,1.\Bq,0,4.91,2.9,1.1\Bq,0,4.91,2.9,1.2\Bq,0,4.91,2.9,1.3\Bq,0,
 4.91,2.9,1.4\Bq,0,4.91,2.9,1.5\Bq,0,4.91,2.9,1.6\Bq,0,4.91,2.9,1.7\Bq,
 0,4.91,2.9,1.8\Bq,0,4.91,2.9,1.9\Bq,0,4.91,2.9,2.\Bq,0,4.91,3.,-2.\Bq,
 0,4.91,3.,-1.9\Bq,0,4.91,3.,-1.8\Bq,0,4.91,3.,-1.7\Bq,0,4.91,3.,-1.6\B
 q,0,4.91,3.,-1.5\Bq,0,4.91,3.,-1.4\Bq,0,4.91,3.,-1.3\Bq,0,4.91,3.,-1.2
 \Bq,0,4.91,3.,-1.1\Bq,0,4.91,3.,-1.\Bq,0,4.91,3.,-0.9\Bq,0,4.91,3.,-0.
 8\Bq,0,4.91,3.,-0.7\Bq,0,4.91,3.,-0.6\Bq,0,4.91,3.,-0.5\Bq,0,4.91,3.,-
 0.4\Bq,0,4.91,3.,-0.3\Bq,0,4.91,3.,-0.2\Bq,0,4.91,3.,-0.1\Bq,0,4.91,3.
 ,0.\Bq,0,4.91,3.,0.1\Bq,0,4.91,3.,0.2\Bq,0,4.91,3.,0.3\Bq,0,4.91,3.,0.
 4\Bq,0,4.91,3.,0.5\Bq,0,4.91,3.,0.6\Bq,0,4.91,3.,0.7\Bq,0,4.91,3.,0.8\
 Bq,0,4.91,3.,0.9\Bq,0,4.91,3.,1.\Bq,0,4.91,3.,1.1\Bq,0,4.91,3.,1.2\Bq,
 0,4.91,3.,1.3\Bq,0,4.91,3.,1.4\Bq,0,4.91,3.,1.5\Bq,0,4.91,3.,1.6\Bq,0,
 4.91,3.,1.7\Bq,0,4.91,3.,1.8\Bq,0,4.91,3.,1.9\Bq,0,4.91,3.,2.\Bq,0,4.9
 1,3.1,-2.\Bq,0,4.91,3.1,-1.9\Bq,0,4.91,3.1,-1.8\Bq,0,4.91,3.1,-1.7\Bq,
 0,4.91,3.1,-1.6\Bq,0,4.91,3.1,-1.5\Bq,0,4.91,3.1,-1.4\Bq,0,4.91,3.1,-1
 .3\Bq,0,4.91,3.1,-1.2\Bq,0,4.91,3.1,-1.1\Bq,0,4.91,3.1,-1.\Bq,0,4.91,3
 .1,-0.9\Bq,0,4.91,3.1,-0.8\Bq,0,4.91,3.1,-0.7\Bq,0,4.91,3.1,-0.6\Bq,0,
 4.91,3.1,-0.5\Bq,0,4.91,3.1,-0.4\Bq,0,4.91,3.1,-0.3\Bq,0,4.91,3.1,-0.2
 \Bq,0,4.91,3.1,-0.1\Bq,0,4.91,3.1,0.\Bq,0,4.91,3.1,0.1\Bq,0,4.91,3.1,0
 .2\Bq,0,4.91,3.1,0.3\Bq,0,4.91,3.1,0.4\Bq,0,4.91,3.1,0.5\Bq,0,4.91,3.1
 ,0.6\Bq,0,4.91,3.1,0.7\Bq,0,4.91,3.1,0.8\Bq,0,4.91,3.1,0.9\Bq,0,4.91,3
 .1,1.\Bq,0,4.91,3.1,1.1\Bq,0,4.91,3.1,1.2\Bq,0,4.91,3.1,1.3\Bq,0,4.91,
 3.1,1.4\Bq,0,4.91,3.1,1.5\Bq,0,4.91,3.1,1.6\Bq,0,4.91,3.1,1.7\Bq,0,4.9
 1,3.1,1.8\Bq,0,4.91,3.1,1.9\Bq,0,4.91,3.1,2.\Bq,0,4.91,3.2,-2.\Bq,0,4.
 91,3.2,-1.9\Bq,0,4.91,3.2,-1.8\Bq,0,4.91,3.2,-1.7\Bq,0,4.91,3.2,-1.6\B
 q,0,4.91,3.2,-1.5\Bq,0,4.91,3.2,-1.4\Bq,0,4.91,3.2,-1.3\Bq,0,4.91,3.2,
 -1.2\Bq,0,4.91,3.2,-1.1\Bq,0,4.91,3.2,-1.\Bq,0,4.91,3.2,-0.9\Bq,0,4.91
 ,3.2,-0.8\Bq,0,4.91,3.2,-0.7\Bq,0,4.91,3.2,-0.6\Bq,0,4.91,3.2,-0.5\Bq,
 0,4.91,3.2,-0.4\Bq,0,4.91,3.2,-0.3\Bq,0,4.91,3.2,-0.2\Bq,0,4.91,3.2,-0
 .1\Bq,0,4.91,3.2,0.\Bq,0,4.91,3.2,0.1\Bq,0,4.91,3.2,0.2\Bq,0,4.91,3.2,
 0.3\Bq,0,4.91,3.2,0.4\Bq,0,4.91,3.2,0.5\Bq,0,4.91,3.2,0.6\Bq,0,4.91,3.
 2,0.7\Bq,0,4.91,3.2,0.8\Bq,0,4.91,3.2,0.9\Bq,0,4.91,3.2,1.\Bq,0,4.91,3
 .2,1.1\Bq,0,4.91,3.2,1.2\Bq,0,4.91,3.2,1.3\Bq,0,4.91,3.2,1.4\Bq,0,4.91
 ,3.2,1.5\Bq,0,4.91,3.2,1.6\Bq,0,4.91,3.2,1.7\Bq,0,4.91,3.2,1.8\Bq,0,4.
 91,3.2,1.9\Bq,0,4.91,3.2,2.\Bq,0,4.91,3.3,-2.\Bq,0,4.91,3.3,-1.9\Bq,0,
 4.91,3.3,-1.8\Bq,0,4.91,3.3,-1.7\Bq,0,4.91,3.3,-1.6\Bq,0,4.91,3.3,-1.5
 \Bq,0,4.91,3.3,-1.4\Bq,0,4.91,3.3,-1.3\Bq,0,4.91,3.3,-1.2\Bq,0,4.91,3.
 3,-1.1\Bq,0,4.91,3.3,-1.\Bq,0,4.91,3.3,-0.9\Bq,0,4.91,3.3,-0.8\Bq,0,4.
 91,3.3,-0.7\Bq,0,4.91,3.3,-0.6\Bq,0,4.91,3.3,-0.5\Bq,0,4.91,3.3,-0.4\B
 q,0,4.91,3.3,-0.3\Bq,0,4.91,3.3,-0.2\Bq,0,4.91,3.3,-0.1\Bq,0,4.91,3.3,
 0.\Bq,0,4.91,3.3,0.1\Bq,0,4.91,3.3,0.2\Bq,0,4.91,3.3,0.3\Bq,0,4.91,3.3
 ,0.4\Bq,0,4.91,3.3,0.5\Bq,0,4.91,3.3,0.6\Bq,0,4.91,3.3,0.7\Bq,0,4.91,3
 .3,0.8\Bq,0,4.91,3.3,0.9\Bq,0,4.91,3.3,1.\Bq,0,4.91,3.3,1.1\Bq,0,4.91,
 3.3,1.2\Bq,0,4.91,3.3,1.3\Bq,0,4.91,3.3,1.4\Bq,0,4.91,3.3,1.5\Bq,0,4.9
 1,3.3,1.6\Bq,0,4.91,3.3,1.7\Bq,0,4.91,3.3,1.8\Bq,0,4.91,3.3,1.9\Bq,0,4
 .91,3.3,2.\Bq,0,4.91,3.4,-2.\Bq,0,4.91,3.4,-1.9\Bq,0,4.91,3.4,-1.8\Bq,
 0,4.91,3.4,-1.7\Bq,0,4.91,3.4,-1.6\Bq,0,4.91,3.4,-1.5\Bq,0,4.91,3.4,-1
 .4\Bq,0,4.91,3.4,-1.3\Bq,0,4.91,3.4,-1.2\Bq,0,4.91,3.4,-1.1\Bq,0,4.91,
 3.4,-1.\Bq,0,4.91,3.4,-0.9\Bq,0,4.91,3.4,-0.8\Bq,0,4.91,3.4,-0.7\Bq,0,
 4.91,3.4,-0.6\Bq,0,4.91,3.4,-0.5\Bq,0,4.91,3.4,-0.4\Bq,0,4.91,3.4,-0.3
 \Bq,0,4.91,3.4,-0.2\Bq,0,4.91,3.4,-0.1\Bq,0,4.91,3.4,0.\Bq,0,4.91,3.4,
 0.1\Bq,0,4.91,3.4,0.2\Bq,0,4.91,3.4,0.3\Bq,0,4.91,3.4,0.4\Bq,0,4.91,3.
 4,0.5\Bq,0,4.91,3.4,0.6\Bq,0,4.91,3.4,0.7\Bq,0,4.91,3.4,0.8\Bq,0,4.91,
 3.4,0.9\Bq,0,4.91,3.4,1.\Bq,0,4.91,3.4,1.1\Bq,0,4.91,3.4,1.2\Bq,0,4.91
 ,3.4,1.3\Bq,0,4.91,3.4,1.4\Bq,0,4.91,3.4,1.5\Bq,0,4.91,3.4,1.6\Bq,0,4.
 91,3.4,1.7\Bq,0,4.91,3.4,1.8\Bq,0,4.91,3.4,1.9\Bq,0,4.91,3.4,2.\Bq,0,4
 .91,3.5,-2.\Bq,0,4.91,3.5,-1.9\Bq,0,4.91,3.5,-1.8\Bq,0,4.91,3.5,-1.7\B
 q,0,4.91,3.5,-1.6\Bq,0,4.91,3.5,-1.5\Bq,0,4.91,3.5,-1.4\Bq,0,4.91,3.5,
 -1.3\Bq,0,4.91,3.5,-1.2\Bq,0,4.91,3.5,-1.1\Bq,0,4.91,3.5,-1.\Bq,0,4.91
 ,3.5,-0.9\Bq,0,4.91,3.5,-0.8\Bq,0,4.91,3.5,-0.7\Bq,0,4.91,3.5,-0.6\Bq,
 0,4.91,3.5,-0.5\Bq,0,4.91,3.5,-0.4\Bq,0,4.91,3.5,-0.3\Bq,0,4.91,3.5,-0
 .2\Bq,0,4.91,3.5,-0.1\Bq,0,4.91,3.5,0.\Bq,0,4.91,3.5,0.1\Bq,0,4.91,3.5
 ,0.2\Bq,0,4.91,3.5,0.3\Bq,0,4.91,3.5,0.4\Bq,0,4.91,3.5,0.5\Bq,0,4.91,3
 .5,0.6\Bq,0,4.91,3.5,0.7\Bq,0,4.91,3.5,0.8\Bq,0,4.91,3.5,0.9\Bq,0,4.91
 ,3.5,1.\Bq,0,4.91,3.5,1.1\Bq,0,4.91,3.5,1.2\Bq,0,4.91,3.5,1.3\Bq,0,4.9
 1,3.5,1.4\Bq,0,4.91,3.5,1.5\Bq,0,4.91,3.5,1.6\Bq,0,4.91,3.5,1.7\Bq,0,4
 .91,3.5,1.8\Bq,0,4.91,3.5,1.9\Bq,0,4.91,3.5,2.\Bq,0,4.91,3.6,-2.\Bq,0,
 4.91,3.6,-1.9\Bq,0,4.91,3.6,-1.8\Bq,0,4.91,3.6,-1.7\Bq,0,4.91,3.6,-1.6
 \Bq,0,4.91,3.6,-1.5\Bq,0,4.91,3.6,-1.4\Bq,0,4.91,3.6,-1.3\Bq,0,4.91,3.
 6,-1.2\Bq,0,4.91,3.6,-1.1\Bq,0,4.91,3.6,-1.\Bq,0,4.91,3.6,-0.9\Bq,0,4.
 91,3.6,-0.8\Bq,0,4.91,3.6,-0.7\Bq,0,4.91,3.6,-0.6\Bq,0,4.91,3.6,-0.5\B
 q,0,4.91,3.6,-0.4\Bq,0,4.91,3.6,-0.3\Bq,0,4.91,3.6,-0.2\Bq,0,4.91,3.6,
 -0.1\Bq,0,4.91,3.6,0.\Bq,0,4.91,3.6,0.1\Bq,0,4.91,3.6,0.2\Bq,0,4.91,3.
 6,0.3\Bq,0,4.91,3.6,0.4\Bq,0,4.91,3.6,0.5\Bq,0,4.91,3.6,0.6\Bq,0,4.91,
 3.6,0.7\Bq,0,4.91,3.6,0.8\Bq,0,4.91,3.6,0.9\Bq,0,4.91,3.6,1.\Bq,0,4.91
 ,3.6,1.1\Bq,0,4.91,3.6,1.2\Bq,0,4.91,3.6,1.3\Bq,0,4.91,3.6,1.4\Bq,0,4.
 91,3.6,1.5\Bq,0,4.91,3.6,1.6\Bq,0,4.91,3.6,1.7\Bq,0,4.91,3.6,1.8\Bq,0,
 4.91,3.6,1.9\Bq,0,4.91,3.6,2.\Bq,0,4.91,3.7,-2.\Bq,0,4.91,3.7,-1.9\Bq,
 0,4.91,3.7,-1.8\Bq,0,4.91,3.7,-1.7\Bq,0,4.91,3.7,-1.6\Bq,0,4.91,3.7,-1
 .5\Bq,0,4.91,3.7,-1.4\Bq,0,4.91,3.7,-1.3\Bq,0,4.91,3.7,-1.2\Bq,0,4.91,
 3.7,-1.1\Bq,0,4.91,3.7,-1.\Bq,0,4.91,3.7,-0.9\Bq,0,4.91,3.7,-0.8\Bq,0,
 4.91,3.7,-0.7\Bq,0,4.91,3.7,-0.6\Bq,0,4.91,3.7,-0.5\Bq,0,4.91,3.7,-0.4
 \Bq,0,4.91,3.7,-0.3\Bq,0,4.91,3.7,-0.2\Bq,0,4.91,3.7,-0.1\Bq,0,4.91,3.
 7,0.\Bq,0,4.91,3.7,0.1\Bq,0,4.91,3.7,0.2\Bq,0,4.91,3.7,0.3\Bq,0,4.91,3
 .7,0.4\Bq,0,4.91,3.7,0.5\Bq,0,4.91,3.7,0.6\Bq,0,4.91,3.7,0.7\Bq,0,4.91
 ,3.7,0.8\Bq,0,4.91,3.7,0.9\Bq,0,4.91,3.7,1.\Bq,0,4.91,3.7,1.1\Bq,0,4.9
 1,3.7,1.2\Bq,0,4.91,3.7,1.3\Bq,0,4.91,3.7,1.4\Bq,0,4.91,3.7,1.5\Bq,0,4
 .91,3.7,1.6\Bq,0,4.91,3.7,1.7\Bq,0,4.91,3.7,1.8\Bq,0,4.91,3.7,1.9\Bq,0
 ,4.91,3.7,2.\Bq,0,4.91,3.8,-2.\Bq,0,4.91,3.8,-1.9\Bq,0,4.91,3.8,-1.8\B
 q,0,4.91,3.8,-1.7\Bq,0,4.91,3.8,-1.6\Bq,0,4.91,3.8,-1.5\Bq,0,4.91,3.8,
 -1.4\Bq,0,4.91,3.8,-1.3\Bq,0,4.91,3.8,-1.2\Bq,0,4.91,3.8,-1.1\Bq,0,4.9
 1,3.8,-1.\Bq,0,4.91,3.8,-0.9\Bq,0,4.91,3.8,-0.8\Bq,0,4.91,3.8,-0.7\Bq,
 0,4.91,3.8,-0.6\Bq,0,4.91,3.8,-0.5\Bq,0,4.91,3.8,-0.4\Bq,0,4.91,3.8,-0
 .3\Bq,0,4.91,3.8,-0.2\Bq,0,4.91,3.8,-0.1\Bq,0,4.91,3.8,0.\Bq,0,4.91,3.
 8,0.1\Bq,0,4.91,3.8,0.2\Bq,0,4.91,3.8,0.3\Bq,0,4.91,3.8,0.4\Bq,0,4.91,
 3.8,0.5\Bq,0,4.91,3.8,0.6\Bq,0,4.91,3.8,0.7\Bq,0,4.91,3.8,0.8\Bq,0,4.9
 1,3.8,0.9\Bq,0,4.91,3.8,1.\Bq,0,4.91,3.8,1.1\Bq,0,4.91,3.8,1.2\Bq,0,4.
 91,3.8,1.3\Bq,0,4.91,3.8,1.4\Bq,0,4.91,3.8,1.5\Bq,0,4.91,3.8,1.6\Bq,0,
 4.91,3.8,1.7\Bq,0,4.91,3.8,1.8\Bq,0,4.91,3.8,1.9\Bq,0,4.91,3.8,2.\Bq,0
 ,4.91,3.9,-2.\Bq,0,4.91,3.9,-1.9\Bq,0,4.91,3.9,-1.8\Bq,0,4.91,3.9,-1.7
 \Bq,0,4.91,3.9,-1.6\Bq,0,4.91,3.9,-1.5\Bq,0,4.91,3.9,-1.4\Bq,0,4.91,3.
 9,-1.3\Bq,0,4.91,3.9,-1.2\Bq,0,4.91,3.9,-1.1\Bq,0,4.91,3.9,-1.\Bq,0,4.
 91,3.9,-0.9\Bq,0,4.91,3.9,-0.8\Bq,0,4.91,3.9,-0.7\Bq,0,4.91,3.9,-0.6\B
 q,0,4.91,3.9,-0.5\Bq,0,4.91,3.9,-0.4\Bq,0,4.91,3.9,-0.3\Bq,0,4.91,3.9,
 -0.2\Bq,0,4.91,3.9,-0.1\Bq,0,4.91,3.9,0.\Bq,0,4.91,3.9,0.1\Bq,0,4.91,3
 .9,0.2\Bq,0,4.91,3.9,0.3\Bq,0,4.91,3.9,0.4\Bq,0,4.91,3.9,0.5\Bq,0,4.91
 ,3.9,0.6\Bq,0,4.91,3.9,0.7\Bq,0,4.91,3.9,0.8\Bq,0,4.91,3.9,0.9\Bq,0,4.
 91,3.9,1.\Bq,0,4.91,3.9,1.1\Bq,0,4.91,3.9,1.2\Bq,0,4.91,3.9,1.3\Bq,0,4
 .91,3.9,1.4\Bq,0,4.91,3.9,1.5\Bq,0,4.91,3.9,1.6\Bq,0,4.91,3.9,1.7\Bq,0
 ,4.91,3.9,1.8\Bq,0,4.91,3.9,1.9\Bq,0,4.91,3.9,2.\Bq,0,4.91,4.,-2.\Bq,0
 ,4.91,4.,-1.9\Bq,0,4.91,4.,-1.8\Bq,0,4.91,4.,-1.7\Bq,0,4.91,4.,-1.6\Bq
 ,0,4.91,4.,-1.5\Bq,0,4.91,4.,-1.4\Bq,0,4.91,4.,-1.3\Bq,0,4.91,4.,-1.2\
 Bq,0,4.91,4.,-1.1\Bq,0,4.91,4.,-1.\Bq,0,4.91,4.,-0.9\Bq,0,4.91,4.,-0.8
 \Bq,0,4.91,4.,-0.7\Bq,0,4.91,4.,-0.6\Bq,0,4.91,4.,-0.5\Bq,0,4.91,4.,-0
 .4\Bq,0,4.91,4.,-0.3\Bq,0,4.91,4.,-0.2\Bq,0,4.91,4.,-0.1\Bq,0,4.91,4.,
 0.\Bq,0,4.91,4.,0.1\Bq,0,4.91,4.,0.2\Bq,0,4.91,4.,0.3\Bq,0,4.91,4.,0.4
 \Bq,0,4.91,4.,0.5\Bq,0,4.91,4.,0.6\Bq,0,4.91,4.,0.7\Bq,0,4.91,4.,0.8\B
 q,0,4.91,4.,0.9\Bq,0,4.91,4.,1.\Bq,0,4.91,4.,1.1\Bq,0,4.91,4.,1.2\Bq,0
 ,4.91,4.,1.3\Bq,0,4.91,4.,1.4\Bq,0,4.91,4.,1.5\Bq,0,4.91,4.,1.6\Bq,0,4
 .91,4.,1.7\Bq,0,4.91,4.,1.8\Bq,0,4.91,4.,1.9\Bq,0,4.91,4.,2.\\Version=
 ES64L-G16RevA.03\HF=-385.8240847\RMSD=1.123e-09\Dipole=0.0000055,-0.00
 04398,-0.0000218\Quadrupole=3.3074637,3.0840557,-6.3915193,0.0016722,-
 0.0014708,0.001646\PG=C01 [X(C10H8)]\\@


 WE DON'T KNOW ONE MILLIONTH OF ONE PERCENT ABOUT
 ANYTHING.
                                     T. A. EDISON.
 Job cpu time:       0 days  1 hours  0 minutes 44.5 seconds.
 Elapsed time:       0 days  0 hours  2 minutes 50.9 seconds.
 File lengths (MBytes):  RWF=     85 Int=      0 D2E=      0 Chk=     24 Scr=      1
 Normal termination of Gaussian 16 at Thu Nov 20 17:20:00 2025.
