[Molden Format]
[Atoms] Angs
 c       1                    6  2.308654163356e+00 -6.098729746617e-01  9.783182537412e-01
 c       2                    6  2.170535862502e+00  8.193921665649e-01  9.446045406948e-01
 c       3                    6  1.052724299257e+00  1.414286335133e+00  3.644949727505e-01
 n       4                    7  1.192011780092e-01  5.704333282110e-01 -1.328554731733e-01
 b       5                    5  1.249841929504e-01 -8.722853319803e-01 -1.062985299656e-01
 c       6                    6  1.344948629982e+00 -1.513501015046e+00  5.052885224050e-01
 c       7                    6 -1.234989641010e+00 -9.239634199097e-01 -9.860258126130e-01
 c       8                    6 -2.560820763852e+00 -6.358544242501e-01 -2.764531651557e-01
 c       9                    6 -2.419931167268e+00  7.186671918106e-01 -2.699311179260e-01
 c      10                    6 -1.082571314662e+00  6.640795553780e-01 -9.975646313253e-01
 h      11                    1  3.246894202970e+00 -9.986855952831e-01  1.395671186489e+00
 h      12                    1  2.961168378980e+00  1.456408823534e+00  1.348457781306e+00
 h      13                    1  9.156598356770e-01  2.498522905564e+00  2.816319082946e-01
 h      14                    1  1.567721607423e+00 -2.583758662098e+00  5.675710743813e-01
 h      15                    1 -1.264764436724e+00 -1.472770439041e+00 -1.937161772159e+00
 h      16                    1 -3.333828067596e+00 -1.305979499815e+00  1.079534230198e-01
 h      17                    1 -2.996270939501e+00  1.550255532764e+00  1.420664618293e-01
 h      18                    1 -9.193160204943e-01  1.224625523126e+00 -1.929767622594e+00
[GTO]
1
 s           8
      6.665000000000e+03      6.915839628130e-04
      1.000000000000e+03      5.325796152934e-03
      2.280000000000e+02      2.706072104203e-02
      6.471000000000e+01      1.016568461408e-01
      2.106000000000e+01      2.745748236174e-01
      7.495000000000e+00      4.482943189238e-01
      2.797000000000e+00      2.849026107152e-01
      5.215000000000e-01      1.519485920608e-02
 s           8
      6.665000000000e+03     -2.932696526865e-04
      1.000000000000e+03     -2.318035473975e-03
      2.280000000000e+02     -1.149978603857e-02
      6.471000000000e+01     -4.682672700979e-02
      2.106000000000e+01     -1.284661687505e-01
      7.495000000000e+00     -3.012662724629e-01
      2.797000000000e+00     -2.556307023301e-01
      5.215000000000e-01      1.093793361012e+00
 s           1
      1.596000000000e-01      1.000000000000e+00
 s           1
      4.690000000000e-02      1.000000000000e+00
 p           3
      9.439000000000e+00      5.697925159004e-02
      2.002000000000e+00      3.132072115007e-01
      5.456000000000e-01      7.603767417375e-01
 p           1
      1.517000000000e-01      1.000000000000e+00
 p           1
      4.041000000000e-02      1.000000000000e+00
 d           1
      5.500000000000e-01      1.000000000000e+00
 d           1
      1.510000000000e-01      1.000000000000e+00

2
 s           8
      6.665000000000e+03      6.915839628130e-04
      1.000000000000e+03      5.325796152934e-03
      2.280000000000e+02      2.706072104203e-02
      6.471000000000e+01      1.016568461408e-01
      2.106000000000e+01      2.745748236174e-01
      7.495000000000e+00      4.482943189238e-01
      2.797000000000e+00      2.849026107152e-01
      5.215000000000e-01      1.519485920608e-02
 s           8
      6.665000000000e+03     -2.932696526865e-04
      1.000000000000e+03     -2.318035473975e-03
      2.280000000000e+02     -1.149978603857e-02
      6.471000000000e+01     -4.682672700979e-02
      2.106000000000e+01     -1.284661687505e-01
      7.495000000000e+00     -3.012662724629e-01
      2.797000000000e+00     -2.556307023301e-01
      5.215000000000e-01      1.093793361012e+00
 s           1
      1.596000000000e-01      1.000000000000e+00
 s           1
      4.690000000000e-02      1.000000000000e+00
 p           3
      9.439000000000e+00      5.697925159004e-02
      2.002000000000e+00      3.132072115007e-01
      5.456000000000e-01      7.603767417375e-01
 p           1
      1.517000000000e-01      1.000000000000e+00
 p           1
      4.041000000000e-02      1.000000000000e+00
 d           1
      5.500000000000e-01      1.000000000000e+00
 d           1
      1.510000000000e-01      1.000000000000e+00

3
 s           8
      6.665000000000e+03      6.915839628130e-04
      1.000000000000e+03      5.325796152934e-03
      2.280000000000e+02      2.706072104203e-02
      6.471000000000e+01      1.016568461408e-01
      2.106000000000e+01      2.745748236174e-01
      7.495000000000e+00      4.482943189238e-01
      2.797000000000e+00      2.849026107152e-01
      5.215000000000e-01      1.519485920608e-02
 s           8
      6.665000000000e+03     -2.932696526865e-04
      1.000000000000e+03     -2.318035473975e-03
      2.280000000000e+02     -1.149978603857e-02
      6.471000000000e+01     -4.682672700979e-02
      2.106000000000e+01     -1.284661687505e-01
      7.495000000000e+00     -3.012662724629e-01
      2.797000000000e+00     -2.556307023301e-01
      5.215000000000e-01      1.093793361012e+00
 s           1
      1.596000000000e-01      1.000000000000e+00
 s           1
      4.690000000000e-02      1.000000000000e+00
 p           3
      9.439000000000e+00      5.697925159004e-02
      2.002000000000e+00      3.132072115007e-01
      5.456000000000e-01      7.603767417375e-01
 p           1
      1.517000000000e-01      1.000000000000e+00
 p           1
      4.041000000000e-02      1.000000000000e+00
 d           1
      5.500000000000e-01      1.000000000000e+00
 d           1
      1.510000000000e-01      1.000000000000e+00

4
 s           8
      9.046000000000e+03      6.996174134255e-04
      1.357000000000e+03      5.386054629929e-03
      3.093000000000e+02      2.739102118906e-02
      8.773000000000e+01      1.031505919820e-01
      2.856000000000e+01      2.785706633174e-01
      1.021000000000e+01      4.482948494541e-01
      3.838000000000e+00      2.780859283953e-01
      7.466000000000e-01      1.543156123327e-02
 s           8
      9.046000000000e+03     -3.049900959534e-04
      1.357000000000e+03     -2.408026378508e-03
      3.093000000000e+02     -1.194444872518e-02
      8.773000000000e+01     -4.892599290902e-02
      2.856000000000e+01     -1.344727247250e-01
      1.021000000000e+01     -3.151125777001e-01
      3.838000000000e+00     -2.428578325496e-01
      7.466000000000e-01      1.094382206854e+00
 s           1
      2.248000000000e-01      1.000000000000e+00
 s           1
      6.124000000000e-02      1.000000000000e+00
 p           3
      1.355000000000e+01      5.890567677213e-02
      2.917000000000e+00      3.204611067143e-01
      7.973000000000e-01      7.530420617921e-01
 p           1
      2.185000000000e-01      1.000000000000e+00
 p           1
      5.611000000000e-02      1.000000000000e+00
 d           1
      8.170000000000e-01      1.000000000000e+00
 d           1
      2.300000000000e-01      1.000000000000e+00

5
 s           8
      4.570000000000e+03      6.955544180306e-04
      6.859000000000e+02      5.349572988100e-03
      1.565000000000e+02      2.711662870523e-02
      4.447000000000e+01      1.013150961206e-01
      1.448000000000e+01      2.718808293065e-01
      5.131000000000e+00      4.481159306152e-01
      1.898000000000e+00      2.899372621010e-01
      3.329000000000e-01      1.431283099861e-02
 s           8
      4.570000000000e+03     -2.812802240142e-04
      6.859000000000e+02     -2.219887811105e-03
      1.565000000000e+02     -1.101647150743e-02
      4.447000000000e+01     -4.434918985248e-02
      1.448000000000e+01     -1.209120479502e-01
      5.131000000000e+00     -2.807378995535e-01
      1.898000000000e+00     -2.660668087326e-01
      3.329000000000e-01      1.091784130514e+00
 s           1
      1.043000000000e-01      1.000000000000e+00
 s           1
      3.105000000000e-02      1.000000000000e+00
 p           3
      6.001000000000e+00      5.416586334015e-02
      1.241000000000e+00      3.023798901809e-01
      3.364000000000e-01      7.712922165481e-01
 p           1
      9.538000000000e-02      1.000000000000e+00
 p           1
      2.378000000000e-02      1.000000000000e+00
 d           1
      3.430000000000e-01      1.000000000000e+00
 d           1
      9.040000000000e-02      1.000000000000e+00

6
 s           8
      6.665000000000e+03      6.915839628130e-04
      1.000000000000e+03      5.325796152934e-03
      2.280000000000e+02      2.706072104203e-02
      6.471000000000e+01      1.016568461408e-01
      2.106000000000e+01      2.745748236174e-01
      7.495000000000e+00      4.482943189238e-01
      2.797000000000e+00      2.849026107152e-01
      5.215000000000e-01      1.519485920608e-02
 s           8
      6.665000000000e+03     -2.932696526865e-04
      1.000000000000e+03     -2.318035473975e-03
      2.280000000000e+02     -1.149978603857e-02
      6.471000000000e+01     -4.682672700979e-02
      2.106000000000e+01     -1.284661687505e-01
      7.495000000000e+00     -3.012662724629e-01
      2.797000000000e+00     -2.556307023301e-01
      5.215000000000e-01      1.093793361012e+00
 s           1
      1.596000000000e-01      1.000000000000e+00
 s           1
      4.690000000000e-02      1.000000000000e+00
 p           3
      9.439000000000e+00      5.697925159004e-02
      2.002000000000e+00      3.132072115007e-01
      5.456000000000e-01      7.603767417375e-01
 p           1
      1.517000000000e-01      1.000000000000e+00
 p           1
      4.041000000000e-02      1.000000000000e+00
 d           1
      5.500000000000e-01      1.000000000000e+00
 d           1
      1.510000000000e-01      1.000000000000e+00

7
 s           8
      6.665000000000e+03      6.915839628130e-04
      1.000000000000e+03      5.325796152934e-03
      2.280000000000e+02      2.706072104203e-02
      6.471000000000e+01      1.016568461408e-01
      2.106000000000e+01      2.745748236174e-01
      7.495000000000e+00      4.482943189238e-01
      2.797000000000e+00      2.849026107152e-01
      5.215000000000e-01      1.519485920608e-02
 s           8
      6.665000000000e+03     -2.932696526865e-04
      1.000000000000e+03     -2.318035473975e-03
      2.280000000000e+02     -1.149978603857e-02
      6.471000000000e+01     -4.682672700979e-02
      2.106000000000e+01     -1.284661687505e-01
      7.495000000000e+00     -3.012662724629e-01
      2.797000000000e+00     -2.556307023301e-01
      5.215000000000e-01      1.093793361012e+00
 s           1
      1.596000000000e-01      1.000000000000e+00
 s           1
      4.690000000000e-02      1.000000000000e+00
 p           3
      9.439000000000e+00      5.697925159004e-02
      2.002000000000e+00      3.132072115007e-01
      5.456000000000e-01      7.603767417375e-01
 p           1
      1.517000000000e-01      1.000000000000e+00
 p           1
      4.041000000000e-02      1.000000000000e+00
 d           1
      5.500000000000e-01      1.000000000000e+00
 d           1
      1.510000000000e-01      1.000000000000e+00

8
 s           8
      6.665000000000e+03      6.915839628130e-04
      1.000000000000e+03      5.325796152934e-03
      2.280000000000e+02      2.706072104203e-02
      6.471000000000e+01      1.016568461408e-01
      2.106000000000e+01      2.745748236174e-01
      7.495000000000e+00      4.482943189238e-01
      2.797000000000e+00      2.849026107152e-01
      5.215000000000e-01      1.519485920608e-02
 s           8
      6.665000000000e+03     -2.932696526865e-04
      1.000000000000e+03     -2.318035473975e-03
      2.280000000000e+02     -1.149978603857e-02
      6.471000000000e+01     -4.682672700979e-02
      2.106000000000e+01     -1.284661687505e-01
      7.495000000000e+00     -3.012662724629e-01
      2.797000000000e+00     -2.556307023301e-01
      5.215000000000e-01      1.093793361012e+00
 s           1
      1.596000000000e-01      1.000000000000e+00
 s           1
      4.690000000000e-02      1.000000000000e+00
 p           3
      9.439000000000e+00      5.697925159004e-02
      2.002000000000e+00      3.132072115007e-01
      5.456000000000e-01      7.603767417375e-01
 p           1
      1.517000000000e-01      1.000000000000e+00
 p           1
      4.041000000000e-02      1.000000000000e+00
 d           1
      5.500000000000e-01      1.000000000000e+00
 d           1
      1.510000000000e-01      1.000000000000e+00

9
 s           8
      6.665000000000e+03      6.915839628130e-04
      1.000000000000e+03      5.325796152934e-03
      2.280000000000e+02      2.706072104203e-02
      6.471000000000e+01      1.016568461408e-01
      2.106000000000e+01      2.745748236174e-01
      7.495000000000e+00      4.482943189238e-01
      2.797000000000e+00      2.849026107152e-01
      5.215000000000e-01      1.519485920608e-02
 s           8
      6.665000000000e+03     -2.932696526865e-04
      1.000000000000e+03     -2.318035473975e-03
      2.280000000000e+02     -1.149978603857e-02
      6.471000000000e+01     -4.682672700979e-02
      2.106000000000e+01     -1.284661687505e-01
      7.495000000000e+00     -3.012662724629e-01
      2.797000000000e+00     -2.556307023301e-01
      5.215000000000e-01      1.093793361012e+00
 s           1
      1.596000000000e-01      1.000000000000e+00
 s           1
      4.690000000000e-02      1.000000000000e+00
 p           3
      9.439000000000e+00      5.697925159004e-02
      2.002000000000e+00      3.132072115007e-01
      5.456000000000e-01      7.603767417375e-01
 p           1
      1.517000000000e-01      1.000000000000e+00
 p           1
      4.041000000000e-02      1.000000000000e+00
 d           1
      5.500000000000e-01      1.000000000000e+00
 d           1
      1.510000000000e-01      1.000000000000e+00

10
 s           8
      6.665000000000e+03      6.915839628130e-04
      1.000000000000e+03      5.325796152934e-03
      2.280000000000e+02      2.706072104203e-02
      6.471000000000e+01      1.016568461408e-01
      2.106000000000e+01      2.745748236174e-01
      7.495000000000e+00      4.482943189238e-01
      2.797000000000e+00      2.849026107152e-01
      5.215000000000e-01      1.519485920608e-02
 s           8
      6.665000000000e+03     -2.932696526865e-04
      1.000000000000e+03     -2.318035473975e-03
      2.280000000000e+02     -1.149978603857e-02
      6.471000000000e+01     -4.682672700979e-02
      2.106000000000e+01     -1.284661687505e-01
      7.495000000000e+00     -3.012662724629e-01
      2.797000000000e+00     -2.556307023301e-01
      5.215000000000e-01      1.093793361012e+00
 s           1
      1.596000000000e-01      1.000000000000e+00
 s           1
      4.690000000000e-02      1.000000000000e+00
 p           3
      9.439000000000e+00      5.697925159004e-02
      2.002000000000e+00      3.132072115007e-01
      5.456000000000e-01      7.603767417375e-01
 p           1
      1.517000000000e-01      1.000000000000e+00
 p           1
      4.041000000000e-02      1.000000000000e+00
 d           1
      5.500000000000e-01      1.000000000000e+00
 d           1
      1.510000000000e-01      1.000000000000e+00

11
 s           3
      1.301000000000e+01      3.349872639000e-02
      1.962000000000e+00      2.348008011741e-01
      4.446000000000e-01      8.136829578829e-01
 s           1
      1.220000000000e-01      1.000000000000e+00
 s           1
      2.974000000000e-02      1.000000000000e+00
 p           1
      7.270000000000e-01      1.000000000000e+00
 p           1
      1.410000000000e-01      1.000000000000e+00

12
 s           3
      1.301000000000e+01      3.349872639000e-02
      1.962000000000e+00      2.348008011741e-01
      4.446000000000e-01      8.136829578829e-01
 s           1
      1.220000000000e-01      1.000000000000e+00
 s           1
      2.974000000000e-02      1.000000000000e+00
 p           1
      7.270000000000e-01      1.000000000000e+00
 p           1
      1.410000000000e-01      1.000000000000e+00

13
 s           3
      1.301000000000e+01      3.349872639000e-02
      1.962000000000e+00      2.348008011741e-01
      4.446000000000e-01      8.136829578829e-01
 s           1
      1.220000000000e-01      1.000000000000e+00
 s           1
      2.974000000000e-02      1.000000000000e+00
 p           1
      7.270000000000e-01      1.000000000000e+00
 p           1
      1.410000000000e-01      1.000000000000e+00

14
 s           3
      1.301000000000e+01      3.349872639000e-02
      1.962000000000e+00      2.348008011741e-01
      4.446000000000e-01      8.136829578829e-01
 s           1
      1.220000000000e-01      1.000000000000e+00
 s           1
      2.974000000000e-02      1.000000000000e+00
 p           1
      7.270000000000e-01      1.000000000000e+00
 p           1
      1.410000000000e-01      1.000000000000e+00

15
 s           3
      1.301000000000e+01      3.349872639000e-02
      1.962000000000e+00      2.348008011741e-01
      4.446000000000e-01      8.136829578829e-01
 s           1
      1.220000000000e-01      1.000000000000e+00
 s           1
      2.974000000000e-02      1.000000000000e+00
 p           1
      7.270000000000e-01      1.000000000000e+00
 p           1
      1.410000000000e-01      1.000000000000e+00

16
 s           3
      1.301000000000e+01      3.349872639000e-02
      1.962000000000e+00      2.348008011741e-01
      4.446000000000e-01      8.136829578829e-01
 s           1
      1.220000000000e-01      1.000000000000e+00
 s           1
      2.974000000000e-02      1.000000000000e+00
 p           1
      7.270000000000e-01      1.000000000000e+00
 p           1
      1.410000000000e-01      1.000000000000e+00

17
 s           3
      1.301000000000e+01      3.349872639000e-02
      1.962000000000e+00      2.348008011741e-01
      4.446000000000e-01      8.136829578829e-01
 s           1
      1.220000000000e-01      1.000000000000e+00
 s           1
      2.974000000000e-02      1.000000000000e+00
 p           1
      7.270000000000e-01      1.000000000000e+00
 p           1
      1.410000000000e-01      1.000000000000e+00

18
 s           3
      1.301000000000e+01      3.349872639000e-02
      1.962000000000e+00      2.348008011741e-01
      4.446000000000e-01      8.136829578829e-01
 s           1
      1.220000000000e-01      1.000000000000e+00
 s           1
      2.974000000000e-02      1.000000000000e+00
 p           1
      7.270000000000e-01      1.000000000000e+00
 p           1
      1.410000000000e-01      1.000000000000e+00


[5D]
[7F]
[9G]
[MO]
 Ene=  -15.595946
 Spin=  Alpha
 Occup=    2.000000
   1    -0.0000370552920637
   2    -0.0000735152793544
   3     0.0016227833022371
   4     0.0079810004036331
   5     0.0000174079553049
   6    -0.0000126716635352
   7     0.0000087216742258
   8    -0.0000660603395541
   9     0.0041923371494321
  10    -0.0000221272979409
  11    -0.0031508128543857
  12    -0.0043082538460909
  13    -0.0015300030923267
  14     0.0000119206015846
  15    -0.0000283918157803
  16     0.0000203975128266
  17    -0.0000214646112632
  18     0.0000346514805944
  19    -0.0001428702246324
  20     0.0000166458660421
  21    -0.0006160765564649
  22    -0.0002398007529285
  23    -0.0012044282209084
  24    -0.0000228627285742
  25    -0.0000578801325442
  26     0.0030147492993426
  27    -0.0087182366049441
  28     0.0001188309203429
  29    -0.0000288831253034
  30     0.0000546321928205
  31    -0.0006519904745006
  32     0.0052534193561377
  33    -0.0003444778718265
  34     0.0043285057902559
  35    -0.0018416604189224
  36     0.0020712803800843
  37    -0.0000300292087839
  38    -0.0000267323528098
  39     0.0000249483251811
  40    -0.0000855199628105
  41     0.0000376018499605
  42     0.0005334116515868
  43     0.0000789260912371
  44    -0.0006261876219686
  45     0.0010640553615503
  46    -0.0009731569055354
  47     0.0003500433403850
  48     0.0005269081889850
  49     0.0056318167950234
  50     0.0220132872391275
  51    -0.0002758556626841
  52    -0.0002347309112674
  53    -0.0001582046156107
  54    -0.0075731351998137
  55    -0.0060362374973967
  56    -0.0039585732283834
  57     0.0014131340725192
  58    -0.0038705700170490
  59     0.0007446360720623
  60    -0.0000457754403272
  61    -0.0000849957476169
  62    -0.0001668428086418
  63    -0.0001407212888282
  64    -0.0003071767764184
  65    -0.0010051164021285
  66     0.0003277284154991
  67     0.0019068656232047
  68    -0.0015232645017918
  69     0.0036282913124719
  70     1.0031804565768168
  71     0.0056449316436768
  72    -0.0261492427790786
  73    -0.0094304268146835
  74     0.0000446886154292
  75     0.0006759491938066
  76    -0.0001098881363391
  77     0.0013112534111782
  78    -0.0027591149113978
  79     0.0008374364297344
  80    -0.0016071915315461
  81    -0.0035775838161626
  82    -0.0006637435314154
  83    -0.0001590351389423
  84     0.0001883201954571
  85     0.0001444060469281
  86    -0.0000139659316078
  87     0.0002430863316826
  88     0.0006136929570515
  89    -0.0021829861975167
  90    -0.0010932468667955
  91    -0.0016891383123126
  92    -0.0017798431757323
  93     0.0001728568348168
  94     0.0003326981626243
  95    -0.0015620231258235
  96    -0.0038947555337169
  97    -0.0001006152068597
  98     0.0002592506181180
  99    -0.0000928898537214
 100     0.0005112516353386
 101    -0.0034440078664603
 102    -0.0001871753289936
 103    -0.0000285126559511
 104    -0.0000642398051600
 105     0.0000815328940397
 106    -0.0000169190251823
 107     0.0000601736764567
 108    -0.0001105673751771
 109     0.0000307445664510
 110    -0.0001700435959825
 111     0.0002894624044630
 112     0.0014177231342149
 113    -0.0011168038574112
 114     0.0021159948755692
 115    -0.0020652263724622
 116     0.0000149977407076
 117     0.0000049807610525
 118     0.0004502937058503
 119    -0.0119165865235419
 120     0.0000251176269696
 121    -0.0000463332020166
 122     0.0000045449568496
 123     0.0020885896333163
 124     0.0008095784440845
 125     0.0010057326547299
 126    -0.0027429106459355
 127    -0.0020045585926965
 128    -0.0014632047925647
 129     0.0000481842910296
 130    -0.0000373479226313
 131     0.0000199995393335
 132     0.0000093701032494
 133     0.0000483294076335
 134    -0.0001403949305782
 135     0.0003617063897028
 136     0.0002206462303927
 137     0.0004388858236900
 138     0.0003645991018211
 139    -0.0000249334928773
 140    -0.0000311834844065
 141    -0.0033513140510800
 142     0.0072861733580766
 143    -0.0000378992635180
 144    -0.0001105173211099
 145     0.0000359606048304
 146    -0.0015862160391920
 147    -0.0020081094172937
 148    -0.0017351261197135
 149     0.0000509487993491
 150     0.0012226098116462
 151     0.0010399466192044
 152    -0.0000334005103049
 153     0.0000591021650669
 154     0.0000043981775392
 155     0.0000593881410053
 156     0.0000315668330939
 157     0.0001564771393496
 158     0.0000919338342107
 159    -0.0004514388751579
 160    -0.0000329981581395
 161    -0.0008759897208618
 162     0.0001280814431312
 163     0.0002105841712663
 164    -0.0036872574304827
 165    -0.0024312489153948
 166     0.0000562176273243
 167    -0.0000308490658871
 168    -0.0000321801577258
 169    -0.0003784838858979
 170    -0.0029119165865836
 171     0.0005487494895536
 172    -0.0008790196761300
 173    -0.0002474187065295
 174     0.0002259060474949
 175     0.0000716478499068
 176     0.0000038664150896
 177    -0.0000206068360989
 178     0.0000007695944373
 179    -0.0000631095796206
 180     0.0000968626552743
 181    -0.0001760850143529
 182     0.0001500871567694
 183     0.0005929827357943
 184     0.0001448990102485
 185     0.0000175423788318
 186     0.0000087491271642
 187     0.0045380995825767
 188     0.0009569879868042
 189    -0.0000350807192171
 190     0.0000066233513765
 191    -0.0000264179267817
 192    -0.0006710298527265
 193    -0.0030340524505246
 194    -0.0010339068906892
 195     0.0001284525733439
 196    -0.0000626601616567
 197    -0.0000597432666712
 198     0.0000981007307740
 199     0.0000170402933566
 200    -0.0000256115125768
 201    -0.0001662949417814
 202     0.0000553273194941
 203    -0.0002231188369762
 204    -0.0000272575674944
 205     0.0004634079917585
 206    -0.0011898750931675
 207     0.0004528932061528
 208    -0.0001672861922379
 209    -0.0002660828033474
 210     0.0093157432981084
 211    -0.0030684439592308
 212     0.0003418668970163
 213     0.0000781951379688
 214     0.0002497847733724
 215     0.0073617321422117
 216    -0.0039291377279416
 217     0.0070891443942968
 218     0.0003275814739327
 219     0.0011153567271930
 220     0.0004955974947558
 221     0.0000364989233382
 222     0.0000083815476583
 223    -0.0000952380930676
 224     0.0001511228727237
 225     0.0000338517304625
 226     0.0004274235915587
 227     0.0036473517005246
 228    -0.0013967176253358
 229    -0.0002697598211838
 230    -0.0021136910297202
 231     0.0000093077617263
 232    -0.0002671220254588
 233     0.0004051365855274
 234    -0.0000208983938529
 235     0.0000020361235802
 236    -0.0000111413801879
 237     0.0000637836620477
 238     0.0002784918272996
 239     0.0000205954027045
 240    -0.0000485936937741
 241    -0.0020629176812948
 242    -0.0005142344656211
 243     0.0000383415009238
 244     0.0000048050466752
 245     0.0000202135208279
 246     0.0006553220120772
 247     0.0004796781963433
 248     0.0003993679248263
 249    -0.0003201801746025
 250     0.0013176404570387
 251     0.0012764508923869
 252     0.0000447824777743
 253     0.0002003848124033
 254     0.0000244225982074
 255    -0.0010607356694803
 256    -0.0007423261526017
 257    -0.0005654963132913
 258     0.0000642581139280
 259     0.0002223476062219
 260    -0.0006115734220019
 261    -0.0000105372234793
 262     0.0000233649516785
 263    -0.0000032220759486
 264    -0.0000765575645703
 265    -0.0001418118509865
 266     0.0000106606638416
 267     0.0000499844826689
 268    -0.0023726783949339
 269     0.0009413793059585
 270     0.0000455000250429
 271     0.0000296275811276
 272     0.0000167413616403
 273     0.0000223294069155
 274    -0.0003616559894888
 275    -0.0004872904999449
 276     0.0000088868405027
 277    -0.0018486811026193
 278    -0.0003481900744725
 279     0.0000275006748639
 280     0.0000208525205515
 281    -0.0000311416706723
 282    -0.0003742512002298
 283    -0.0003255211521666
 284     0.0001804442165018
 285    -0.0000256047198347
 286     0.0015214496845912
 287    -0.0001464101407420
 288    -0.0000098187634623
 289    -0.0000321294683624
 290    -0.0000246115216174
 291     0.0002220097581338
 292    -0.0005694204767892
 293    -0.0002916714122376
 294    -0.0001636155471614
 295     0.0034703123522053
 296     0.0001773168188400
 297    -0.0000185772749602
 298     0.0000520380667377
 299    -0.0001484558923545
 300     0.0009296199336915
 301    -0.0005326886631564
 302     0.0007143948128152
 Ene=  -11.285730
 Spin=  Alpha
 Occup=    2.000000
   1    -0.0002825003940456
   2    -0.0004183854542348
   3     0.0141360225356147
   4     0.0036847603702887
   5    -0.0000098404014774
   6    -0.0000443044657263
   7    -0.0000093425607693
   8     0.0026007130425696
   9     0.0195233645322636
  10     0.0018422040770282
  11     0.0017283165590852
  12     0.0053128057306613
  13     0.0009032514004547
  14    -0.0001039399805625
  15     0.0000732060196171
  16    -0.0000375850033488
  17    -0.0000455244864879
  18    -0.0000982299010617
  19    -0.0008832445084723
  20    -0.0014630751246325
  21    -0.0010859314610426
  22    -0.0036959424444175
  23    -0.0024476514850775
  24     0.0118910107501118
  25     0.0001008754300873
  26     0.0122149928580634
  27     0.0072421088459153
  28    -0.0001111740710856
  29     0.0000101146277219
  30    -0.0000641968320560
  31    -0.0201239109950636
  32     0.0226153223412059
  33    -0.0098152465212667
  34    -0.0054969237756641
  35     0.0049658746998503
  36    -0.0025653934462543
  37     0.0000968996458172
  38    -0.0000447983650440
  39    -0.0000156569892123
  40     0.0001144987387580
  41    -0.0000084395679432
  42     0.0015970856900650
  43     0.0035765974042559
  44    -0.0013915007550324
  45     0.0080952791344786
  46    -0.0024656719618185
  47     0.9750958218995792
  48     0.0080425618776897
  49    -0.0411823683642552
  50    -0.0154978311341459
  51    -0.0008893652234774
  52    -0.0006553118698129
  53    -0.0004778092080067
  54    -0.0217048923316275
  55     0.0048003283160844
  56    -0.0114167455394020
  57    -0.0056274919220331
  58     0.0011854754125812
  59    -0.0030807242990133
  60    -0.0003804499801001
  61     0.0004423063532135
  62     0.0000788129450750
  63    -0.0000465600026321
  64     0.0001513797204803
  65     0.0013161418016693
  66    -0.0021022565720917
  67     0.0041023641079098
  68    -0.0003306296156569
  69     0.0074646906857712
  70     0.0001931397104467
  71     0.0007355830565860
  72    -0.0047243819426030
  73    -0.0022159468023300
  74     0.0003479109732851
  75     0.0002388943423268
  76     0.0001801124032674
  77    -0.0044252709684381
  78    -0.0031023352874908
  79    -0.0024818489463055
  80    -0.0021508363593690
  81    -0.0062093566769140
  82    -0.0018367011362202
  83     0.0000715345947166
  84    -0.0000860007588603
  85     0.0000327869120663
  86    -0.0000038510397682
  87     0.0000407510586355
  88     0.0005236412551541
  89     0.0000317288918543
  90    -0.0017426025992985
  91     0.0007447329842609
  92    -0.0030196649008809
  93     0.0000864933142104
  94     0.0001296748262698
  95    -0.0041567803141274
  96     0.0020855993679865
  97    -0.0000786303766335