[Molden Format]
[Atoms] Angs
 c       1                    6  2.358379864579e+00 -5.674765829692e-01  6.087681278078e-01
 c       2                    6  2.233368968878e+00  8.652364628018e-01  7.983276668675e-01
 c       3                    6  1.027634499881e+00  1.502277087681e+00  7.254442853798e-01
 n       4                    7 -2.076406893152e-01  8.277823229353e-01  5.588089915699e-01
 b       5                    5 -1.387595288188e-01 -6.862754227595e-01  4.636115869343e-02
 c       6                    6  1.282791677889e+00 -1.318562127502e+00  2.201488950124e-01
 c       7                    6 -1.360902009227e+00 -1.419057902762e+00 -4.800278912374e-01
 c       8                    6 -2.581747640125e+00 -6.543187854759e-01 -6.494506339375e-01
 c       9                    6 -2.325066271783e+00  6.908285960678e-01 -6.077817641282e-01
 c      10                    6 -8.438820232553e-01  9.099790054445e-01 -6.625680147685e-01
 h      11                    1  3.338874950726e+00 -1.026377795457e+00  7.769463476570e-01
 h      12                    1  3.117103690480e+00  1.472663167598e+00  1.007192229170e+00
 h      13                    1  9.314209535496e-01  2.583692515409e+00  8.560570529516e-01
 h      14                    1  1.419206961150e+00 -2.402613724708e+00  1.104874150233e-01
 h      15                    1 -1.314231812903e+00 -2.477894275656e+00 -7.710648907159e-01
 h      16                    1 -3.576081393918e+00 -1.106831769411e+00 -6.419916324347e-01
 h      17                    1 -3.026157598663e+00  1.490794152497e+00 -3.448043484916e-01
 h      18                    1 -3.343125991234e-01  1.316155076267e+00 -1.550852994421e+00
[GTO]
1
 s           8
      6.665000000000e+03      6.915839628130e-04
      1.000000000000e+03      5.325796152934e-03
      2.280000000000e+02      2.706072104203e-02
      6.471000000000e+01      1.016568461408e-01
      2.106000000000e+01      2.745748236174e-01
      7.495000000000e+00      4.482943189238e-01
      2.797000000000e+00      2.849026107152e-01
      5.215000000000e-01      1.519485920608e-02
 s           8
      6.665000000000e+03     -2.932696526865e-04
      1.000000000000e+03     -2.318035473975e-03
      2.280000000000e+02     -1.149978603857e-02
      6.471000000000e+01     -4.682672700979e-02
      2.106000000000e+01     -1.284661687505e-01
      7.495000000000e+00     -3.012662724629e-01
      2.797000000000e+00     -2.556307023301e-01
      5.215000000000e-01      1.093793361012e+00
 s           1
      1.596000000000e-01      1.000000000000e+00
 s           1
      4.690000000000e-02      1.000000000000e+00
 p           3
      9.439000000000e+00      5.697925159004e-02
      2.002000000000e+00      3.132072115007e-01
      5.456000000000e-01      7.603767417375e-01
 p           1
      1.517000000000e-01      1.000000000000e+00
 p           1
      4.041000000000e-02      1.000000000000e+00
 d           1
      5.500000000000e-01      1.000000000000e+00
 d           1
      1.510000000000e-01      1.000000000000e+00

2
 s           8
      6.665000000000e+03      6.915839628130e-04
      1.000000000000e+03      5.325796152934e-03
      2.280000000000e+02      2.706072104203e-02
      6.471000000000e+01      1.016568461408e-01
      2.106000000000e+01      2.745748236174e-01
      7.495000000000e+00      4.482943189238e-01
      2.797000000000e+00      2.849026107152e-01
      5.215000000000e-01      1.519485920608e-02
 s           8
      6.665000000000e+03     -2.932696526865e-04
      1.000000000000e+03     -2.318035473975e-03
      2.280000000000e+02     -1.149978603857e-02
      6.471000000000e+01     -4.682672700979e-02
      2.106000000000e+01     -1.284661687505e-01
      7.495000000000e+00     -3.012662724629e-01
      2.797000000000e+00     -2.556307023301e-01
      5.215000000000e-01      1.093793361012e+00
 s           1
      1.596000000000e-01      1.000000000000e+00
 s           1
      4.690000000000e-02      1.000000000000e+00
 p           3
      9.439000000000e+00      5.697925159004e-02
      2.002000000000e+00      3.132072115007e-01
      5.456000000000e-01      7.603767417375e-01
 p           1
      1.517000000000e-01      1.000000000000e+00
 p           1
      4.041000000000e-02      1.000000000000e+00
 d           1
      5.500000000000e-01      1.000000000000e+00
 d           1
      1.510000000000e-01      1.000000000000e+00

3
 s           8
      6.665000000000e+03      6.915839628130e-04
      1.000000000000e+03      5.325796152934e-03
      2.280000000000e+02      2.706072104203e-02
      6.471000000000e+01      1.016568461408e-01
      2.106000000000e+01      2.745748236174e-01
      7.495000000000e+00      4.482943189238e-01
      2.797000000000e+00      2.849026107152e-01
      5.215000000000e-01      1.519485920608e-02
 s           8
      6.665000000000e+03     -2.932696526865e-04
      1.000000000000e+03     -2.318035473975e-03
      2.280000000000e+02     -1.149978603857e-02
      6.471000000000e+01     -4.682672700979e-02
      2.106000000000e+01     -1.284661687505e-01
      7.495000000000e+00     -3.012662724629e-01
      2.797000000000e+00     -2.556307023301e-01
      5.215000000000e-01      1.093793361012e+00
 s           1
      1.596000000000e-01      1.000000000000e+00
 s           1
      4.690000000000e-02      1.000000000000e+00
 p           3
      9.439000000000e+00      5.697925159004e-02
      2.002000000000e+00      3.132072115007e-01
      5.456000000000e-01      7.603767417375e-01
 p           1
      1.517000000000e-01      1.000000000000e+00
 p           1
      4.041000000000e-02      1.000000000000e+00
 d           1
      5.500000000000e-01      1.000000000000e+00
 d           1
      1.510000000000e-01      1.000000000000e+00

4
 s           8
      9.046000000000e+03      6.996174134255e-04
      1.357000000000e+03      5.386054629929e-03
      3.093000000000e+02      2.739102118906e-02
      8.773000000000e+01      1.031505919820e-01
      2.856000000000e+01      2.785706633174e-01
      1.021000000000e+01      4.482948494541e-01
      3.838000000000e+00      2.780859283953e-01
      7.466000000000e-01      1.543156123327e-02
 s           8
      9.046000000000e+03     -3.049900959534e-04
      1.357000000000e+03     -2.408026378508e-03
      3.093000000000e+02     -1.194444872518e-02
      8.773000000000e+01     -4.892599290902e-02
      2.856000000000e+01     -1.344727247250e-01
      1.021000000000e+01     -3.151125777001e-01
      3.838000000000e+00     -2.428578325496e-01
      7.466000000000e-01      1.094382206854e+00
 s           1
      2.248000000000e-01      1.000000000000e+00
 s           1
      6.124000000000e-02      1.000000000000e+00
 p           3
      1.355000000000e+01      5.890567677213e-02
      2.917000000000e+00      3.204611067143e-01
      7.973000000000e-01      7.530420617921e-01
 p           1
      2.185000000000e-01      1.000000000000e+00
 p           1
      5.611000000000e-02      1.000000000000e+00
 d           1
      8.170000000000e-01      1.000000000000e+00
 d           1
      2.300000000000e-01      1.000000000000e+00

5
 s           8
      4.570000000000e+03      6.955544180306e-04
      6.859000000000e+02      5.349572988100e-03
      1.565000000000e+02      2.711662870523e-02
      4.447000000000e+01      1.013150961206e-01
      1.448000000000e+01      2.718808293065e-01
      5.131000000000e+00      4.481159306152e-01
      1.898000000000e+00      2.899372621010e-01
      3.329000000000e-01      1.431283099861e-02
 s           8
      4.570000000000e+03     -2.812802240142e-04
      6.859000000000e+02     -2.219887811105e-03
      1.565000000000e+02     -1.101647150743e-02
      4.447000000000e+01     -4.434918985248e-02
      1.448000000000e+01     -1.209120479502e-01
      5.131000000000e+00     -2.807378995535e-01
      1.898000000000e+00     -2.660668087326e-01
      3.329000000000e-01      1.091784130514e+00
 s           1
      1.043000000000e-01      1.000000000000e+00
 s           1
      3.105000000000e-02      1.000000000000e+00
 p           3
      6.001000000000e+00      5.416586334015e-02
      1.241000000000e+00      3.023798901809e-01
      3.364000000000e-01      7.712922165481e-01
 p           1
      9.538000000000e-02      1.000000000000e+00
 p           1
      2.378000000000e-02      1.000000000000e+00
 d           1
      3.430000000000e-01      1.000000000000e+00
 d           1
      9.040000000000e-02      1.000000000000e+00

6
 s           8
      6.665000000000e+03      6.915839628130e-04
      1.000000000000e+03      5.325796152934e-03
      2.280000000000e+02      2.706072104203e-02
      6.471000000000e+01      1.016568461408e-01
      2.106000000000e+01      2.745748236174e-01
      7.495000000000e+00      4.482943189238e-01
      2.797000000000e+00      2.849026107152e-01
      5.215000000000e-01      1.519485920608e-02
 s           8
      6.665000000000e+03     -2.932696526865e-04
      1.000000000000e+03     -2.318035473975e-03
      2.280000000000e+02     -1.149978603857e-02
      6.471000000000e+01     -4.682672700979e-02
      2.106000000000e+01     -1.284661687505e-01
      7.495000000000e+00     -3.012662724629e-01
      2.797000000000e+00     -2.556307023301e-01
      5.215000000000e-01      1.093793361012e+00
 s           1
      1.596000000000e-01      1.000000000000e+00
 s           1
      4.690000000000e-02      1.000000000000e+00
 p           3
      9.439000000000e+00      5.697925159004e-02
      2.002000000000e+00      3.132072115007e-01
      5.456000000000e-01      7.603767417375e-01
 p           1
      1.517000000000e-01      1.000000000000e+00
 p           1
      4.041000000000e-02      1.000000000000e+00
 d           1
      5.500000000000e-01      1.000000000000e+00
 d           1
      1.510000000000e-01      1.000000000000e+00

7
 s           8
      6.665000000000e+03      6.915839628130e-04
      1.000000000000e+03      5.325796152934e-03
      2.280000000000e+02      2.706072104203e-02
      6.471000000000e+01      1.016568461408e-01
      2.106000000000e+01      2.745748236174e-01
      7.495000000000e+00      4.482943189238e-01
      2.797000000000e+00      2.849026107152e-01
      5.215000000000e-01      1.519485920608e-02
 s           8
      6.665000000000e+03     -2.932696526865e-04
      1.000000000000e+03     -2.318035473975e-03
      2.280000000000e+02     -1.149978603857e-02
      6.471000000000e+01     -4.682672700979e-02
      2.106000000000e+01     -1.284661687505e-01
      7.495000000000e+00     -3.012662724629e-01
      2.797000000000e+00     -2.556307023301e-01
      5.215000000000e-01      1.093793361012e+00
 s           1
      1.596000000000e-01      1.000000000000e+00
 s           1
      4.690000000000e-02      1.000000000000e+00
 p           3
      9.439000000000e+00      5.697925159004e-02
      2.002000000000e+00      3.132072115007e-01
      5.456000000000e-01      7.603767417375e-01
 p           1
      1.517000000000e-01      1.000000000000e+00
 p           1
      4.041000000000e-02      1.000000000000e+00
 d           1
      5.500000000000e-01      1.000000000000e+00
 d           1
      1.510000000000e-01      1.000000000000e+00

8
 s           8
      6.665000000000e+03      6.915839628130e-04
      1.000000000000e+03      5.325796152934e-03
      2.280000000000e+02      2.706072104203e-02
      6.471000000000e+01      1.016568461408e-01
      2.106000000000e+01      2.745748236174e-01
      7.495000000000e+00      4.482943189238e-01
      2.797000000000e+00      2.849026107152e-01
      5.215000000000e-01      1.519485920608e-02
 s           8
      6.665000000000e+03     -2.932696526865e-04
      1.000000000000e+03     -2.318035473975e-03
      2.280000000000e+02     -1.149978603857e-02
      6.471000000000e+01     -4.682672700979e-02
      2.106000000000e+01     -1.284661687505e-01
      7.495000000000e+00     -3.012662724629e-01
      2.797000000000e+00     -2.556307023301e-01
      5.215000000000e-01      1.093793361012e+00
 s           1
      1.596000000000e-01      1.000000000000e+00
 s           1
      4.690000000000e-02      1.000000000000e+00
 p           3
      9.439000000000e+00      5.697925159004e-02
      2.002000000000e+00      3.132072115007e-01
      5.456000000000e-01      7.603767417375e-01
 p           1
      1.517000000000e-01      1.000000000000e+00
 p           1
      4.041000000000e-02      1.000000000000e+00
 d           1
      5.500000000000e-01      1.000000000000e+00
 d           1
      1.510000000000e-01      1.000000000000e+00

9
 s           8
      6.665000000000e+03      6.915839628130e-04
      1.000000000000e+03      5.325796152934e-03
      2.280000000000e+02      2.706072104203e-02
      6.471000000000e+01      1.016568461408e-01
      2.106000000000e+01      2.745748236174e-01
      7.495000000000e+00      4.482943189238e-01
      2.797000000000e+00      2.849026107152e-01
      5.215000000000e-01      1.519485920608e-02
 s           8
      6.665000000000e+03     -2.932696526865e-04
      1.000000000000e+03     -2.318035473975e-03
      2.280000000000e+02     -1.149978603857e-02
      6.471000000000e+01     -4.682672700979e-02
      2.106000000000e+01     -1.284661687505e-01
      7.495000000000e+00     -3.012662724629e-01
      2.797000000000e+00     -2.556307023301e-01
      5.215000000000e-01      1.093793361012e+00
 s           1
      1.596000000000e-01      1.000000000000e+00
 s           1
      4.690000000000e-02      1.000000000000e+00
 p           3
      9.439000000000e+00      5.697925159004e-02
      2.002000000000e+00      3.132072115007e-01
      5.456000000000e-01      7.603767417375e-01
 p           1
      1.517000000000e-01      1.000000000000e+00
 p           1
      4.041000000000e-02      1.000000000000e+00
 d           1
      5.500000000000e-01      1.000000000000e+00
 d           1
      1.510000000000e-01      1.000000000000e+00

10
 s           8
      6.665000000000e+03      6.915839628130e-04
      1.000000000000e+03      5.325796152934e-03
      2.280000000000e+02      2.706072104203e-02
      6.471000000000e+01      1.016568461408e-01
      2.106000000000e+01      2.745748236174e-01
      7.495000000000e+00      4.482943189238e-01
      2.797000000000e+00      2.849026107152e-01
      5.215000000000e-01      1.519485920608e-02
 s           8
      6.665000000000e+03     -2.932696526865e-04
      1.000000000000e+03     -2.318035473975e-03
      2.280000000000e+02     -1.149978603857e-02
      6.471000000000e+01     -4.682672700979e-02
      2.106000000000e+01     -1.284661687505e-01
      7.495000000000e+00     -3.012662724629e-01
      2.797000000000e+00     -2.556307023301e-01
      5.215000000000e-01      1.093793361012e+00
 s           1
      1.596000000000e-01      1.000000000000e+00
 s           1
      4.690000000000e-02      1.000000000000e+00
 p           3
      9.439000000000e+00      5.697925159004e-02
      2.002000000000e+00      3.132072115007e-01
      5.456000000000e-01      7.603767417375e-01
 p           1
      1.517000000000e-01      1.000000000000e+00
 p           1
      4.041000000000e-02      1.000000000000e+00
 d           1
      5.500000000000e-01      1.000000000000e+00
 d           1
      1.510000000000e-01      1.000000000000e+00

11
 s           3
      1.301000000000e+01      3.349872639000e-02
      1.962000000000e+00      2.348008011741e-01
      4.446000000000e-01      8.136829578829e-01
 s           1
      1.220000000000e-01      1.000000000000e+00
 s           1
      2.974000000000e-02      1.000000000000e+00
 p           1
      7.270000000000e-01      1.000000000000e+00
 p           1
      1.410000000000e-01      1.000000000000e+00

12
 s           3
      1.301000000000e+01      3.349872639000e-02
      1.962000000000e+00      2.348008011741e-01
      4.446000000000e-01      8.136829578829e-01
 s           1
      1.220000000000e-01      1.000000000000e+00
 s           1
      2.974000000000e-02      1.000000000000e+00
 p           1
      7.270000000000e-01      1.000000000000e+00
 p           1
      1.410000000000e-01      1.000000000000e+00

13
 s           3
      1.301000000000e+01      3.349872639000e-02
      1.962000000000e+00      2.348008011741e-01
      4.446000000000e-01      8.136829578829e-01
 s           1
      1.220000000000e-01      1.000000000000e+00
 s           1
      2.974000000000e-02      1.000000000000e+00
 p           1
      7.270000000000e-01      1.000000000000e+00
 p           1
      1.410000000000e-01      1.000000000000e+00

14
 s           3
      1.301000000000e+01      3.349872639000e-02
      1.962000000000e+00      2.348008011741e-01
      4.446000000000e-01      8.136829578829e-01
 s           1
      1.220000000000e-01      1.000000000000e+00
 s           1
      2.974000000000e-02      1.000000000000e+00
 p           1
      7.270000000000e-01      1.000000000000e+00
 p           1
      1.410000000000e-01      1.000000000000e+00

15
 s           3
      1.301000000000e+01      3.349872639000e-02
      1.962000000000e+00      2.348008011741e-01
      4.446000000000e-01      8.136829578829e-01
 s           1
      1.220000000000e-01      1.000000000000e+00
 s           1
      2.974000000000e-02      1.000000000000e+00
 p           1
      7.270000000000e-01      1.000000000000e+00
 p           1
      1.410000000000e-01      1.000000000000e+00

16
 s           3
      1.301000000000e+01      3.349872639000e-02
      1.962000000000e+00      2.348008011741e-01
      4.446000000000e-01      8.136829578829e-01
 s           1
      1.220000000000e-01      1.000000000000e+00
 s           1
      2.974000000000e-02      1.000000000000e+00
 p           1
      7.270000000000e-01      1.000000000000e+00
 p           1
      1.410000000000e-01      1.000000000000e+00

17
 s           3
      1.301000000000e+01      3.349872639000e-02
      1.962000000000e+00      2.348008011741e-01
      4.446000000000e-01      8.136829578829e-01
 s           1
      1.220000000000e-01      1.000000000000e+00
 s           1
      2.974000000000e-02      1.000000000000e+00
 p           1
      7.270000000000e-01      1.000000000000e+00
 p           1
      1.410000000000e-01      1.000000000000e+00

18
 s           3
      1.301000000000e+01      3.349872639000e-02
      1.962000000000e+00      2.348008011741e-01
      4.446000000000e-01      8.136829578829e-01
 s           1
      1.220000000000e-01      1.000000000000e+00
 s           1
      2.974000000000e-02      1.000000000000e+00
 p           1
      7.270000000000e-01      1.000000000000e+00
 p           1
      1.410000000000e-01      1.000000000000e+00


[5D]
[7F]
[9G]
[MO]
 Ene=  -15.605798
 Spin=  Alpha
 Occup=    2.000000
   1    -0.0000971869432558
   2    -0.0001701904547419
   3     0.0072480370341994
   4    -0.0007565774692457
   5    -0.0000049584154087
   6    -0.0000000668751881
   7     0.0000183845252730
   8    -0.0009576096255739
   9     0.0090246418855565
  10     0.0011825574155046
  11    -0.0022290090295225
  12    -0.0028659788700100
  13    -0.0009189010865604
  14    -0.0000089940090440
  15     0.0000087611864031
  16    -0.0000013062793745
  17    -0.0000063060683812
  18    -0.0000345007135962
  19    -0.0001728941615760
  20    -0.0005031209800402
  21    -0.0002981647990718
  22    -0.0015438196296010
  23    -0.0020452708384871
  24     0.0000444022327989
  25     0.0000487033797887
  26     0.0093064505126668
  27    -0.0064085848383765
  28     0.0000682378244391
  29    -0.0000456669705426
  30    -0.0000081812468736
  31    -0.0069620752016152
  32     0.0126812676421925
  33     0.0010278665145956
  34     0.0033945503830892
  35    -0.0034920831040679
  36     0.0000198548387189
  37     0.0000174468130953
  38    -0.0000332636712821
  39    -0.0000087823617868
  40    -0.0001239613157755
  41    -0.0000598454570012
  42     0.0005645484861928
  43    -0.0001248573565200
  44    -0.0011915238728421
  45     0.0036240913266925
  46    -0.0029504842652105
  47     0.0001860829124369
  48     0.0003069009863230
  49    -0.0057844911530200
  50     0.0196123456877211
  51    -0.0002973658254563
  52    -0.0001243820363544
  53    -0.0000741358840642
  54    -0.0168890524967842
  55    -0.0017080197550830
  56    -0.0021761743663737
  57     0.0026065740134908
  58    -0.0027861531185384
  59    -0.0003466598301779
  60    -0.0000434822939173
  61     0.0000072318992440
  62     0.0000349090259812
  63    -0.0001554944434373
  64    -0.0001296188404628
  65    -0.0006146518949130
  66     0.0007257376815455
  67     0.0013704739547756
  68    -0.0013725215595612
  69     0.0070993133956752
  70     1.0031371362701371
  71     0.0053642332142402
  72    -0.0289287172950535
  73    -0.0199923448626980
  74     0.0008727639726398
  75     0.0001343840912800
  76    -0.0015753661230357
  77    -0.0034904700030829
  78    -0.0012310393233160
  79     0.0055143556073777
  80    -0.0039502959706517
  81    -0.0007159092646660
  82     0.0028219406498771
  83     0.0001145288809738
  84     0.0001069512212836
  85    -0.0000143117981926
  86     0.0001117412723439
  87     0.0000916104612134
  88    -0.0006262571471541
  89    -0.0011442516900273
  90    -0.0004134263438275
  91    -0.0010243272504709
  92    -0.0005315920631696
  93     0.0001562674494115
  94     0.0003661473772103
  95     0.0033713493799529
  96    -0.0026424620275464
  97    -0.0000248826861156
  98     0.0004612935267130
  99     0.0001534706104291
 100    -0.0000859648505738
 101    -0.0022696279348339
 102    -0.0008190264173125
 103    -0.0011211940832682
 104    -0.0011196527579497
 105    -0.0005990753124450
 106    -0.0002453319804469
 107     0.0000067960888964
 108     0.0001354628022945
 109    -0.0001629806924067
 110     0.0002379623041700
 111     0.0005681043718666
 112     0.0001171586001721
 113    -0.0005765536690020
 114     0.0021327175897864
 115     0.0002680081696900
 116     0.0000372932776218
 117     0.0000399123994103
 118     0.0032509036322565
 119    -0.0043688410751972
 120     0.0000056791404784
 121    -0.0000166341449432
 122     0.0000012863102592
 123     0.0026407944835956
 124     0.0006025799535719
 125     0.0009558914532367
 126    -0.0013601218172183
 127     0.0002700205113460
 128    -0.0002719951533707
 129     0.0000558909415323
 130     0.0000155201962350
 131    -0.0000116757009235
 132     0.0000940348121626
 133     0.0000638917533959
 134     0.0000271847402410
 135     0.0001021032927655
 136     0.0000890673380438
 137     0.0006527074365236
 138     0.0001864418853918
 139     0.0000989417607402
 140     0.0001419422729845
 141    -0.0010497824894050
 142    -0.0086444932968602
 143    -0.0000291931674750
 144    -0.0000009707173258
 145    -0.0000283794534443
 146    -0.0023348244935469
 147     0.0002673043041023
 148    -0.0006693318533314
 149     0.0017959666230019
 150    -0.0023214437035806
 151    -0.0000793460941390
 152     0.0000588010416878
 153    -0.0000680608050032
 154    -0.0000405014602728
 155     0.0000188804629540
 156    -0.0000438273195299
 157    -0.0001810121862537
 158     0.0000621337100076
 159    -0.0004481292685127
 160     0.0006290858618132
 161    -0.0007904952625240
 162     0.0000619374033394
 163     0.0000982444750038
 164    -0.0040309247699332
 165     0.0065306870885030
 166     0.0000179514198126
 167    -0.0000362792729896
 168    -0.0000114236397091
 169    -0.0012683581826525
 170     0.0000746361380145
 171     0.0001316861535335
 172     0.0017600035927173
 173    -0.0013537161971969
 174     0.0002646299597542
 175     0.0000236033385268
 176    -0.0000283542681745
 177    -0.0000098895626201
 178     0.0000104248844412
 179    -0.0000042787246616
 180     0.0001296912862961
 181     0.0000600666979747
 182     0.0001716477201840
 183     0.0002564896100764
 184     0.0005869687531371
 185    -0.0000119575758735
 186    -0.0000455400500587
 187     0.0034737943397529
 188    -0.0093220093109404
 189    -0.0000536620762935
 190     0.0000097520201593
 191    -0.0000577178986014
 192     0.0007270269642145
 193    -0.0010344918548156
 194    -0.0000892386003638
 195    -0.0030715410570679
 196    -0.0003782022472417
 197    -0.0004918901570884
 198     0.0000872509748601
 199    -0.0000714991378275
 200    -0.0000098839722070
 201    -0.0001372922953019
 202     0.0000110806588272
 203    -0.0004246623170119
 204     0.0002263798865006
 205     0.0003477159065863
 206    -0.0005039460897315
 207     0.0005020943928280
 208     0.0001394535376810
 209     0.0002148232765528
 210     0.0091857316471926
 211     0.0163861154652567
 212     0.0002429262581032
 213    -0.0000174949135347
 214     0.0003259685114674
 215     0.0048190371520594
 216    -0.0019485485567721
 217     0.0082065157174059
 218    -0.0026567022105566
 219    -0.0008966754743245
 220     0.0025137401007474
 221    -0.0001522173633182
 222    -0.0001874421416873
 223    -0.0000354182848383
 224     0.0002164346071603
 225     0.0000742151132195
 226     0.0031760461345363
 227     0.0032087829221900
 228    -0.0012241245168635
 229    -0.0013394637243895
 230    -0.0008428257919199
 231     0.0000067669005655
 232     0.0018639620672712
 233     0.0003426153507505
 234     0.0000221853122544
 235    -0.0000027942233799
 236    -0.0000079891265836
 237    -0.0002342236269536
 238     0.0006334689712318
 239    -0.0000461064532192
 240     0.0000725382596899
 241    -0.0016612487043563
 242     0.0000077705443372
 243     0.0000359542517687
 244    -0.0000002395375237
 245     0.0000125056058329
 246     0.0006815978137001
 247     0.0008422759910510
 248     0.0002799013146273
 249    -0.0002357388030635
 250     0.0005703111342260
 251     0.0012872171799260
 252     0.0000255652555985
 253     0.0001235236147263
 254     0.0000121655586524
 255    -0.0017785406598829
 256    -0.0005221402982665
 257    -0.0004631649584706
 258     0.0000913113796099
 259     0.0012853874823199
 260    -0.0001823762317216
 261    -0.0000093632182547
 262     0.0000395154698269
 263     0.0000037844047688
 264    -0.0004059536884052
 265     0.0001025993573846
 266    -0.0000150812102753
 267     0.0000812232301279
 268     0.0021769653015709
 269    -0.0019485434642554
 270    -0.0000216179445331
 271     0.0000196096497425
 272    -0.0000021478461408
 273     0.0000174644012758
 274     0.0004711103936931
 275     0.0001460294372223
 276     0.0000167349307822
 277    -0.0011170778056160
 278     0.0000227650438575
 279     0.0000243644781257
 280     0.0000016337523990
 281    -0.0000127755657007
 282    -0.0002101232076915
 283    -0.0000424042815743
 284     0.0000767912540453
 285    -0.0000160849263576
 286     0.0018674772239480
 287    -0.0005812682447735
 288     0.0000226293063887
 289    -0.0000148560992190
 290    -0.0000166695141278
 291     0.0003221260883424
 292    -0.0005494868801616
 293    -0.0001245728737903
 294    -0.0002132245439377
 295     0.0026289756146428
 296     0.0013110624537402
 297     0.0000034672877601
 298     0.0000343345833342
 299    -0.0002382231204746
 300     0.0012570709888625
 301    -0.0004065426068030
 302     0.0010873651918184
 Ene=  -11.310939
 Spin=  Alpha
 Occup=    2.000000
   1     0.0000592260112937
   2     0.0001015379506323
   3    -0.0057882492731800
   4     0.0090659892078590
   5     0.0000179167356880
   6     0.0000041222849495
   7     0.0000257155319083
   8     0.0014422953319291
   9    -0.0063003401629816
  10    -0.0003484402405524
  11    -0.0022815060628831
  12     0.0005389329365439
  13    -0.0002550631328928
  14     0.0000469962545812
  15    -0.0000177361789433
  16    -0.0000069347599688
  17     0.0000007948918324
  18     0.0000174271087560
  19     0.0000071309969021
  20    -0.0000033337650438
  21     0.0001085152971064
  22     0.0003927494653831
  23     0.0011911565284809
  24    -0.0000592367961227
  25    -0.0000969536291195
  26    -0.0109013477436625
  27    -0.0113081055036949
  28     0.0001709412024601
  29    -0.0000474200557463
  30     0.0000283445641861
  31     0.0083638896004865
  32    -0.0083741946730311
  33    -0.0003016652280672
  34     0.0028365654750275
  35     0.0009170077098074
  36     0.0002511880028937
  37     0.0000145596959161
  38    -0.0000095851792962
  39     0.0000181781501280
  40    -0.0000805528949090
  41    -0.0000000246182183
  42     0.0000119710315180
  43     0.0000450928369408
  44     0.0008996398176660
  45    -0.0036795448154608
  46     0.0020061793522671
  47     0.0002544543125352
  48     0.0000115980966228
  49     0.0129036754478309
  50     0.0077305059648718
  51    -0.0002381183290499
  52    -0.0000183881365172
  53    -0.0001557588161740
  54     0.0112400109791365
  55    -0.0042760777381506
  56     0.0013402630180257
  57     0.0016559559581385
  58    -0.0028885341578098
  59     0.0002915140207077
  60    -0.0000662101560086
  61    -0.0000692578905905
  62     0.0000478228586483
  63    -0.0001408494939640
  64    -0.0001025001854645
  65    -0.0008255573111373
  66    -0.0005273157704649
  67    -0.0008593101234405
  68     0.0001342202602889
  69    -0.0054045119935551
  70    -0.0002032516116313
  71    -0.0008537476006088
  72     0.0047904633178885
  73     0.0007812296823447
  74     0.0004122860474587
  75    -0.0002885991418424
  76     0.0000402523459005
  77     0.0019906540865775
  78     0.0007559409575727
  79    -0.0014251225140011
  80     0.0025138272662382
  81     0.0001385674323965
  82    -0.0019755338340391
  83     0.0000092582730939
  84     0.0001231975488121
  85     0.0000207816665420
  86     0.0001095061469026
  87     0.0000751926761802
  88     0.0016119158623935
  89     0.0002739237475485
  90    -0.0001066323873000
  91    -0.0004613974542392
  92    -0.0004365557504282
  93    -0.0001790254406960
  94    -0.0003399486424659
  95    -0.0038607434309366
  96     0.0009059609372480
  97     0.0000502317773998