ACID calculation from xyz coordinates                                   
SP        RwB97XD                                                     Aug-CC-pVDZ         
Number of atoms                            I               18
Info1-9                                    I   N=           9
          12           8           0           0           0         111
           1          18        -802
Full Title                                 C   N=           4
ACID calculation from xyz coordinates           
Route                                      C   N=           9
#p wb97xD/aug-cc-pvdz Geom=AllCheck Guess=Read NMR=CSGT IOp(
10/93=1) SCF=(Tight,MaxCycle=512) Int=UltraFine 
Charge                                     I                0
Multiplicity                               I                1
Number of electrons                        I               68
Number of alpha electrons                  I               34
Number of beta electrons                   I               34
Number of basis functions                  I              302
Number of independent functions            I              302
Number of point charges in /Mol/           I                0
Number of translation vectors              I                0
Atomic numbers                             I   N=          18
           6           6           6           7           5           6
           6           6           6           6           1           1
           1           1           1           1           1           1
Nuclear charges                            R   N=          18
  6.00000000E+00  6.00000000E+00  6.00000000E+00  7.00000000E+00  5.00000000E+00
  6.00000000E+00  6.00000000E+00  6.00000000E+00  6.00000000E+00  6.00000000E+00
  1.00000000E+00  1.00000000E+00  1.00000000E+00  1.00000000E+00  1.00000000E+00
  1.00000000E+00  1.00000000E+00  1.00000000E+00
Current cartesian coordinates              R   N=          54
  4.63741679E+00  1.19016934E+00 -4.82349497E-01  4.41408340E+00 -1.49989088E+00
 -4.12891058E-01  2.13896018E+00 -2.63448242E+00  1.25538410E-01  1.69538980E-01
 -1.09072622E+00  5.90154426E-01  1.60671726E-01  1.60828848E+00  5.11296236E-01
  2.65827668E+00  2.84696382E+00 -5.45271156E-02 -2.84867072E+00  1.65157348E+00
  1.09103691E+00 -4.56446496E+00  1.17366850E+00 -1.16925512E+00 -4.27391200E+00
 -1.34661453E+00 -1.17768682E+00 -2.55548826E+00 -1.32385418E+00  1.12555223E+00
  6.51498467E+00  1.94102931E+00 -9.10933889E-01  6.06337589E+00 -2.67199030E+00
 -7.81227944E-01  1.87668906E+00 -4.67627126E+00  2.13217580E-01  3.04796361E+00
  4.86829204E+00 -1.57796904E-01 -3.63948934E+00  2.63441999E+00  2.73179392E+00
 -5.57607234E+00  2.47005963E+00 -2.40979288E+00 -4.88558281E+00 -2.85586159E+00
 -2.43465366E+00 -3.02920687E+00 -2.46123536E+00  2.78932401E+00
Number of symbols in /Mol/                 I                0
Force Field                                I                0
Atom Types                                 C   N=          18
                                                            
                                                            
                                                            
                                    
Int Atom Types                             I   N=          18
           0           0           0           0           0           0
           0           0           0           0           0           0
           0           0           0           0           0           0
MM charges                                 R   N=          18
  0.00000000E+00  0.00000000E+00  0.00000000E+00  0.00000000E+00  0.00000000E+00
  0.00000000E+00  0.00000000E+00  0.00000000E+00  0.00000000E+00  0.00000000E+00
  0.00000000E+00  0.00000000E+00  0.00000000E+00  0.00000000E+00  0.00000000E+00
  0.00000000E+00  0.00000000E+00  0.00000000E+00
Integer atomic weights                     I   N=          18
          12          12          12          14          11          12
          12          12          12          12           1           1
           1           1           1           1           1           1
Real atomic weights                        R   N=          18
  1.20000000E+01  1.20000000E+01  1.20000000E+01  1.40030740E+01  1.10093053E+01
  1.20000000E+01  1.20000000E+01  1.20000000E+01  1.20000000E+01  1.20000000E+01
  1.00782504E+00  1.00782504E+00  1.00782504E+00  1.00782504E+00  1.00782504E+00
  1.00782504E+00  1.00782504E+00  1.00782504E+00
Atom fragment info                         I   N=          18
           0           0           0           0           0           0
           0           0           0           0           0           0
           0           0           0           0           0           0
Atom residue num                           I   N=          18
           0           0           0           0           0           0
           0           0           0           0           0           0
           0           0           0           0           0           0
Nuclear spins                              I   N=          18
           0           0           0           2           3           0
           0           0           0           0           1           1
           1           1           1           1           1           1
Nuclear ZEff                               R   N=          18
 -3.60000000E+00 -3.60000000E+00 -3.60000000E+00 -4.55000000E+00 -2.75000000E+00
 -3.60000000E+00 -3.60000000E+00 -3.60000000E+00 -3.60000000E+00 -3.60000000E+00
 -1.00000000E+00 -1.00000000E+00 -1.00000000E+00 -1.00000000E+00 -1.00000000E+00
 -1.00000000E+00 -1.00000000E+00 -1.00000000E+00
Nuclear ZNuc                               R   N=          18
  6.00000000E+00  6.00000000E+00  6.00000000E+00  7.00000000E+00  5.00000000E+00
  6.00000000E+00  6.00000000E+00  6.00000000E+00  6.00000000E+00  6.00000000E+00
  1.00000000E+00  1.00000000E+00  1.00000000E+00  1.00000000E+00  1.00000000E+00
  1.00000000E+00  1.00000000E+00  1.00000000E+00
Nuclear QMom                               R   N=          18
  0.00000000E+00  0.00000000E+00  0.00000000E+00  2.04400000E+00  4.05900000E+00
  0.00000000E+00  0.00000000E+00  0.00000000E+00  0.00000000E+00  0.00000000E+00
  0.00000000E+00  0.00000000E+00  0.00000000E+00  0.00000000E+00  0.00000000E+00
  0.00000000E+00  0.00000000E+00  0.00000000E+00
Nuclear GFac                               R   N=          18
  0.00000000E+00  0.00000000E+00  0.00000000E+00  4.03761000E-01  2.68863700E+00
  0.00000000E+00  0.00000000E+00  0.00000000E+00  0.00000000E+00  0.00000000E+00
  2.79284600E+00  2.79284600E+00  2.79284600E+00  2.79284600E+00  2.79284600E+00
  2.79284600E+00  2.79284600E+00  2.79284600E+00
MicOpt                                     I   N=          18
          -1          -1          -1          -1          -1          -1
          -1          -1          -1          -1          -1          -1
          -1          -1          -1          -1          -1          -1
Number of residues                         I                0
Number of secondary structures             I                0
Redundant internal dimensions              I   N=           4
         117          20          36          61
Redundant internal coordinate indices      I   N=         468
           1           2           0           0           1           6
           0           0           1          11           0           0
           2           3           0           0           2          12
           0           0           3           4           0           0
           3          13           0           0           4           5
           0           0           4          10           0           0
           5           6           0           0           5           7
           0           0           6          14           0           0
           7           8           0           0           7          10
           0           0           7          15           0           0
           8           9           0           0           8          16
           0           0           9          10           0           0
           9          17           0           0          10          18
           0           0           2           1           6           0
           2           1          11           0           6           1
          11           0           1           2           3           0
           1           2          12           0           3           2
          12           0           2           3           4           0
           2           3          13           0           4           3
          13           0           3           4           5           0
           3           4          10           0           5           4
          10           0           4           5           6           0
           4           5           7           0           6           5
           7           0           1           6           5           0
           1           6          14           0           5           6
          14           0           5           7           8           0
           5           7          10           0           5           7
          15           0           8           7          10           0
           8           7          15           0          10           7
          15           0           7           8           9           0
           7           8          16           0           9           8
          16           0           8           9          10           0
           8           9          17           0          10           9
          17           0           4          10           7           0
           4          10           9           0           4          10
          18           0           7          10           9           0
           7          10          18           0           9          10
          18           0           6           1           2           3
           6           1           2          12          11           1
           2           3          11           1           2          12
           2           1           6           5           2           1
           6          14          11           1           6           5
          11           1           6          14           1           2
           3           4           1           2           3          13
          12           2           3           4          12           2
           3          13           2           3           4           5
           2           3           4          10          13           3
           4           5          13           3           4          10
           3           4           5           6           3           4
           5           7          10           4           5           6
          10           4           5           7           3           4
          10           7           3           4          10           9
           3           4          10          18           5           4
          10           7           5           4          10           9
           5           4          10          18           4           5
           6           1           4           5           6          14
           7           5           6           1           7           5
           6          14           4           5           7           8
           4           5           7          10           4           5
           7          15           6           5           7           8
           6           5           7          10           6           5
           7          15           5           7           8           9
           5           7           8          16          10           7
           8           9          10           7           8          16
          15           7           8           9          15           7
           8          16           5           7          10           4
           5           7          10           9           5           7
          10          18           8           7          10           4
           8           7          10           9           8           7
          10          18          15           7          10           4
          15           7          10           9          15           7
          10          18           7           8           9          10
           7           8           9          17          16           8
           9          10          16           8           9          17
           8           9          10           4           8           9
          10           7           8           9          10          18
          17           9          10           4          17           9
          10           7          17           9          10          18
Redundant internal coordinates             R   N=         117
  2.70020856E+00  2.61629423E+00  2.06705985E+00  2.59872852E+00  2.05661246E+00
  2.54512693E+00  2.06043089E+00  2.70018103E+00  2.78689306E+00  2.84473253E+00
  3.06498202E+00  2.06113764E+00  2.87771838E+00  2.99003629E+00  2.06965333E+00
  2.53699008E+00  2.05983335E+00  2.87374465E+00  2.05716638E+00  2.07030960E+00
  2.17014707E+00  2.02900915E+00  2.08402537E+00  2.10911585E+00  2.09074985E+00
  2.08330898E+00  2.03806352E+00  2.15663718E+00  2.08840204E+00  2.21868150E+00
  2.40528697E+00  1.65691774E+00  2.02435290E+00  1.58261319E+00  2.67589867E+00
  2.00528352E+00  2.05987793E+00  2.21802377E+00  2.02027759E+00  1.46244127E+00
  2.13154949E+00  1.47291006E+00  2.06430559E+00  2.09541089E+00  1.67026315E+00
  2.29339195E+00  2.31783106E+00  1.62878108E+00  2.34172237E+00  2.30949606E+00
  1.58121249E+00  2.01682706E+00  2.00874277E+00  1.51075667E+00  2.13356964E+00
  2.09776709E+00 -1.06097179E-02  3.13596996E+00  3.13394145E+00 -2.66418040E-03
  5.34890146E-04 -3.14065405E+00  3.13908181E+00 -2.10712991E-03 -6.34192409E-03
 -3.13404593E+00  3.13028473E+00  2.58071585E-03  3.58914894E-02  3.08496064E+00
 -3.11901827E+00 -6.99491167E-02 -4.52367223E-02  3.07846241E+00 -3.12451222E+00
 -8.13084077E-04 -3.06674811E+00 -1.55752398E+00  1.00956487E+00  8.33451183E-04
  1.51005758E+00 -2.20603888E+00  2.40565483E-02 -3.11798283E+00 -3.07768234E+00
  6.34635830E-02 -1.40769912E+00  7.59488551E-04  2.12619097E+00  1.69806852E+00
  3.10652714E+00 -1.05122669E+00  1.37966752E+00 -1.70414210E+00 -2.23079283E-02
 -3.10611755E+00 -2.13838460E+00  1.06099108E+00 -7.35846187E-04 -2.01775799E+00
  2.10292945E+00  2.03665362E+00  1.96314787E-02 -2.14286639E+00 -2.16005257E+00
  2.10611059E+00 -5.63872744E-02  2.31385847E-02 -3.03738100E+00  3.10565634E+00
  4.51367522E-02 -1.57581736E+00 -2.21991754E-02  2.17152415E+00  1.48712838E+00
  3.04074657E+00 -1.04871542E+00
ZRed-IntVec                                I   N=         117
           0           0           0           0           0           0
           0           0           0           0           0           0
           0           0           0           0           0           0
           0           0           0           0           0           0
           0           0           0           0           0           0
           0           0           0           0           0           0
           0           0           0           0           0           0
           0           0           0           0           0           0
           0           0           0           0           0           0
           0           0           0           0           0           0
           0           0           0           0           0           0
           0           0           0           0           0           0
           0           0           0           0           0           0
           0           0           0           0           0           0
           0           0           0           0           0           0
           0           0           0           0           0           0
           0           0           0           0           0           0
           0           0           0           0           0           0
           0           0           0           0           0           0
           0           0           0
ZRed-FPVec                                 R   N=         117
  0.00000000E+00  0.00000000E+00  0.00000000E+00  0.00000000E+00  0.00000000E+00
  0.00000000E+00  0.00000000E+00  0.00000000E+00  0.00000000E+00  0.00000000E+00
  0.00000000E+00  0.00000000E+00  0.00000000E+00  0.00000000E+00  0.00000000E+00
  0.00000000E+00  0.00000000E+00  0.00000000E+00  0.00000000E+00  0.00000000E+00
  0.00000000E+00  0.00000000E+00  0.00000000E+00  0.00000000E+00  0.00000000E+00
  0.00000000E+00  0.00000000E+00  0.00000000E+00  0.00000000E+00  0.00000000E+00
  0.00000000E+00  0.00000000E+00  0.00000000E+00  0.00000000E+00  0.00000000E+00
  0.00000000E+00  0.00000000E+00  0.00000000E+00  0.00000000E+00  0.00000000E+00
  0.00000000E+00  0.00000000E+00  0.00000000E+00  0.00000000E+00  0.00000000E+00
  0.00000000E+00  0.00000000E+00  0.00000000E+00  0.00000000E+00  0.00000000E+00
  0.00000000E+00  0.00000000E+00  0.00000000E+00  0.00000000E+00  0.00000000E+00
  0.00000000E+00  0.00000000E+00  0.00000000E+00  0.00000000E+00  0.00000000E+00
  0.00000000E+00  0.00000000E+00  0.00000000E+00  0.00000000E+00  0.00000000E+00
  0.00000000E+00  0.00000000E+00  0.00000000E+00  0.00000000E+00  0.00000000E+00
  0.00000000E+00  0.00000000E+00  0.00000000E+00  0.00000000E+00  0.00000000E+00
  0.00000000E+00  0.00000000E+00  0.00000000E+00  0.00000000E+00  0.00000000E+00
  0.00000000E+00  0.00000000E+00  0.00000000E+00  0.00000000E+00  0.00000000E+00
  0.00000000E+00  0.00000000E+00  0.00000000E+00  0.00000000E+00  0.00000000E+00
  0.00000000E+00  0.00000000E+00  0.00000000E+00  0.00000000E+00  0.00000000E+00
  0.00000000E+00  0.00000000E+00  0.00000000E+00  0.00000000E+00  0.00000000E+00
  0.00000000E+00  0.00000000E+00  0.00000000E+00  0.00000000E+00  0.00000000E+00
  0.00000000E+00  0.00000000E+00  0.00000000E+00  0.00000000E+00  0.00000000E+00
  0.00000000E+00  0.00000000E+00  0.00000000E+00  0.00000000E+00  0.00000000E+00
  0.00000000E+00  0.00000000E+00
ZRed-Constraint1                           R   N=         117
  2.70020856E+00  2.61629423E+00  2.06705985E+00  2.59872852E+00  2.05661246E+00
  2.54512693E+00  2.06043089E+00  2.70018103E+00  2.78689306E+00  2.84473253E+00
  3.06498202E+00  2.06113764E+00  2.87771838E+00  2.99003629E+00  2.06965333E+00
  2.53699008E+00  2.05983335E+00  2.87374465E+00  2.05716638E+00  2.07030960E+00
  2.17014707E+00  2.02900915E+00  2.08402537E+00  2.10911585E+00  2.09074985E+00
  2.08330898E+00  2.03806352E+00  2.15663718E+00  2.08840204E+00  2.21868150E+00
  2.40528697E+00  1.65691774E+00  2.02435290E+00  1.58261319E+00  2.67589867E+00
  2.00528352E+00  2.05987793E+00  2.21802377E+00  2.02027759E+00  1.46244127E+00
  2.13154949E+00  1.47291006E+00  2.06430559E+00  2.09541089E+00  1.67026315E+00
  2.29339195E+00  2.31783106E+00  1.62878108E+00  2.34172237E+00  2.30949606E+00
  1.58121249E+00  2.01682706E+00  2.00874277E+00  1.51075667E+00  2.13356964E+00
  2.09776709E+00 -1.06097179E-02  3.13596996E+00  3.13394145E+00 -2.66418040E-03
  5.34890146E-04 -3.14065405E+00  3.13908181E+00 -2.10712991E-03 -6.34192409E-03
 -3.13404593E+00  3.13028473E+00  2.58071585E-03  3.58914894E-02  3.08496064E+00
 -3.11901827E+00 -6.99491167E-02 -4.52367223E-02  3.07846241E+00 -3.12451222E+00
 -8.13084077E-04 -3.06674811E+00 -1.55752398E+00  1.00956487E+00  8.33451184E-04
  1.51005758E+00 -2.20603888E+00  2.40565483E-02 -3.11798283E+00 -3.07768234E+00
  6.34635830E-02 -1.40769912E+00  7.59488551E-04  2.12619097E+00  1.69806852E+00
  3.10652714E+00 -1.05122669E+00  1.37966752E+00 -1.70414210E+00 -2.23079283E-02
 -3.10611755E+00 -2.13838460E+00  1.06099108E+00 -7.35846187E-04 -2.01775799E+00
  2.10292945E+00  2.03665362E+00  1.96314787E-02 -2.14286639E+00 -2.16005257E+00
  2.10611059E+00 -5.63872744E-02  2.31385847E-02 -3.03738100E+00  3.10565634E+00
  4.51367522E-02 -1.57581736E+00 -2.21991754E-02  2.17152415E+00  1.48712838E+00
  3.04074657E+00 -1.04871542E+00
ZRed-Constraint2                           R   N=         117
  2.70252990E+00  2.61324964E+00  2.06810609E+00  2.59617639E+00  2.05757977E+00
  2.54623595E+00  2.06158404E+00  2.70067563E+00  2.78731155E+00  2.84713899E+00
  3.06457975E+00  2.06171148E+00  2.87559461E+00  2.98470308E+00  2.07002426E+00
  2.53554616E+00  2.06090029E+00  2.87146687E+00  2.05815549E+00  2.07095385E+00
  2.17123974E+00  2.02852899E+00  2.08341072E+00  2.10848199E+00  2.09123694E+00
  2.08345814E+00  2.03904355E+00  2.15644534E+00  2.08762163E+00  2.21787854E+00
  2.40683746E+00  1.65616136E+00  2.02422678E+00  1.58140881E+00  2.67720922E+00
  2.00479504E+00  2.06053701E+00  2.21785090E+00  2.01919429E+00  1.46379521E+00
  2.13225824E+00  1.47344523E+00  2.06415376E+00  2.09453559E+00  1.66966909E+00
  2.29455362E+00  2.31743583E+00  1.62815230E+00  2.34203967E+00  2.30991266E+00
  1.58181933E+00  2.01604366E+00  2.00939440E+00  1.51147189E+00  2.13244657E+00
  2.09767656E+00 -9.28617518E-03  3.13669531E+00  3.13602381E+00 -1.18001215E-03
 -8.98634263E-04 -3.14032393E+00  3.13686753E+00 -2.55776940E-03 -6.56171802E-03
 -3.13493049E+00  3.13066145E+00  2.29267512E-03  3.52278902E-02  3.08406454E+00
 -3.11904045E+00 -7.02037933E-02 -4.47434022E-02  3.07843209E+00 -3.12397370E+00
 -7.98207432E-04 -3.06653588E+00 -1.55621453E+00  1.01048903E+00  8.19572717E-04
  1.51114092E+00 -2.20534082E+00  2.46297452E-02 -3.11936006E+00 -3.07583443E+00
  6.33610750E-02 -1.40920258E+00  7.46976180E-04  2.12621565E+00  1.69541756E+00
  3.10536712E+00 -1.05234952E+00  1.38231077E+00 -1.70447051E+00 -2.16537652E-02
 -3.10843504E+00 -2.13699218E+00  1.05941185E+00 -7.23761690E-04 -2.01691198E+00
  2.10376756E+00  2.03524862E+00  1.90603954E-02 -2.14344537E+00 -2.16149833E+00
  2.10549876E+00 -5.70070138E-02  2.24381361E-02 -3.03943346E+00  3.10807211E+00
  4.62005148E-02 -1.57623750E+00 -2.15500803E-02  2.17126809E+00  1.48801411E+00
  3.04270153E+00 -1.04766561E+00
SymInf integers                            I   N=          26
           1           1           1           1           1           0
           0           0           0           0           0           0
           0           0           0           0           0           0
           0           0           0           0           0           0
           0           0
RotTr to input orientation                 R   N=          12
  9.68027806E-01  3.15493650E-03 -2.50823073E-01 -4.19884096E-03 -9.99577008E-01
 -2.87780415E-02 -2.50807770E-01  2.89111105E-02 -9.67605090E-01 -1.96339515E-02
  2.42152128E-01  5.82933677E-01
Number of contracted shells                I              130
Number of primitive shells                 I              286
Pure/Cartesian d shells                    I                0
Pure/Cartesian f shells                    I                0
Highest angular momentum                   I                2
Largest degree of contraction              I                7
Shell types                                I   N=         130
           0           0           0           0           1           1
           1          -2          -2           0           0           0
           0           1           1           1          -2          -2
           0           0           0           0           1           1
           1          -2          -2           0           0           0
           0           1           1           1          -2          -2
           0           0           0           0           1           1
           1          -2          -2           0           0           0
           0           1           1           1          -2          -2
           0           0           0           0           1           1
           1          -2          -2           0           0           0
           0           1           1           1          -2          -2
           0           0           0           0           1           1
           1          -2          -2           0           0           0
           0           1           1           1          -2          -2
           0           0           0           1           1           0
           0           0           1           1           0           0
           0           1           1           0           0           0
           1           1           0           0           0           1
           1           0           0           0           1           1
           0           0           0           1           1           0
           0           0           1           1
Number of primitives per shell             I   N=         130
           7           7           1           1           3           1
           1           1           1           7           7           1
           1           3           1           1           1           1
           7           7           1           1           3           1
           1           1           1           7           7           1
           1           3           1           1           1           1
           7           7           1           1           3           1
           1           1           1           7           7           1
           1           3           1           1           1           1
           7           7           1           1           3           1
           1           1           1           7           7           1
           1           3           1           1           1           1
           7           7           1           1           3           1
           1           1           1           7           7           1
           1           3           1           1           1           1
           3           1           1           1           1           3
           1           1           1           1           3           1
           1           1           1           3           1           1
           1           1           3           1           1           1
           1           3           1           1           1           1
           3           1           1           1           1           3
           1           1           1           1
Shell to atom map                          I   N=         130
           1           1           1           1           1           1
           1           1           1           2           2           2
           2           2           2           2           2           2
           3           3           3           3           3           3
           3           3           3           4           4           4
           4           4           4           4           4           4
           5           5           5           5           5           5
           5           5           5           6           6           6
           6           6           6           6           6           6
           7           7           7           7           7           7
           7           7           7           8           8           8
           8           8           8           8           8           8
           9           9           9           9           9           9
           9           9           9          10          10          10
          10          10          10          10          10          10
          11          11          11          11          11          12
          12          12          12          12          13          13
          13          13          13          14          14          14
          14          14          15          15          15          15
          15          16          16          16          16          16
          17          17          17          17          17          18
          18          18          18          18
Primitive exponents                        R   N=         286
  6.66500000E+03  1.00000000E+03  2.28000000E+02  6.47100000E+01  2.10600000E+01
  7.49500000E+00  2.79700000E+00  6.66500000E+03  2.28000000E+02  6.47100000E+01
  2.10600000E+01  7.49500000E+00  2.79700000E+00  5.21500000E-01  1.59600000E-01
  4.69000000E-02  9.43900000E+00  2.00200000E+00  5.45600000E-01  1.51700000E-01
  4.04100000E-02  5.50000000E-01  1.51000000E-01  6.66500000E+03  1.00000000E+03
  2.28000000E+02  6.47100000E+01  2.10600000E+01  7.49500000E+00  2.79700000E+00
  6.66500000E+03  2.28000000E+02  6.47100000E+01  2.10600000E+01  7.49500000E+00
  2.79700000E+00  5.21500000E-01  1.59600000E-01  4.69000000E-02  9.43900000E+00
  2.00200000E+00  5.45600000E-01  1.51700000E-01  4.04100000E-02  5.50000000E-01
  1.51000000E-01  6.66500000E+03  1.00000000E+03  2.28000000E+02  6.47100000E+01
  2.10600000E+01  7.49500000E+00  2.79700000E+00  6.66500000E+03  2.28000000E+02
  6.47100000E+01  2.10600000E+01  7.49500000E+00  2.79700000E+00  5.21500000E-01
  1.59600000E-01  4.69000000E-02  9.43900000E+00  2.00200000E+00  5.45600000E-01
  1.51700000E-01  4.04100000E-02  5.50000000E-01  1.51000000E-01  9.04600000E+03
  1.35700000E+03  3.09300000E+02  8.77300000E+01  2.85600000E+01  1.02100000E+01
  3.83800000E+00  9.04600000E+03  3.09300000E+02  8.77300000E+01  2.85600000E+01
  1.02100000E+01  3.83800000E+00  7.46600000E-01  2.24800000E-01  6.12400000E-02
  1.35500000E+01  2.91700000E+00  7.97300000E-01  2.18500000E-01  5.61100000E-02
  8.17000000E-01  2.30000000E-01  4.57000000E+03  6.85900000E+02  1.56500000E+02
  4.44700000E+01  1.44800000E+01  5.13100000E+00  1.89800000E+00  4.57000000E+03