[Molden Format]
[Atoms] Angs
 c       1                    6  2.365952291082e+00 -5.755055969517e-01  6.155802596314e-01
 c       2                    6  2.240377695082e+00  8.603085428547e-01  7.961100389641e-01
 c       3                    6  1.033427411664e+00  1.499616163211e+00  7.201252828081e-01
 n       4                    7 -2.039782799775e-01  8.248120487394e-01  5.554213165623e-01
 b       5                    5 -1.349279802492e-01 -6.950977750216e-01  2.497082186256e-02
 c       6                    6  1.289090045048e+00 -1.326872302488e+00  2.207060717090e-01
 c       7                    6 -1.360121466889e+00 -1.432906428855e+00 -4.835279352579e-01
 c       8                    6 -2.580293030924e+00 -6.611258508199e-01 -6.529008217926e-01
 c       9                    6 -2.329476870864e+00  6.857121940953e-01 -6.089359933386e-01
 c      10                    6 -8.457601847723e-01  9.338932390265e-01 -6.572182790679e-01
 h      11                    1  3.345578654315e+00 -1.034173879753e+00  7.925469821771e-01
 h      12                    1  3.125502552793e+00  1.469123837592e+00  9.980322863045e-01
 h      13                    1  9.361187073754e-01  2.581507373904e+00  8.373110259602e-01
 h      14                    1  1.422888452842e+00 -2.413117277521e+00  1.244294885286e-01
 h      15                    1 -1.326928067538e+00 -2.500549163071e+00 -7.486629812503e-01
 h      16                    1 -3.575827586798e+00 -1.112017125982e+00 -6.416434933039e-01
 h      17                    1 -3.046285228794e+00  1.480770502895e+00 -3.715337671238e-01
 h      18                    1 -3.553371133968e-01  1.415621498145e+00 -1.520810303375e+00
[GTO]
1
 s           8
      6.665000000000e+03      6.915839628130e-04
      1.000000000000e+03      5.325796152934e-03
      2.280000000000e+02      2.706072104203e-02
      6.471000000000e+01      1.016568461408e-01
      2.106000000000e+01      2.745748236174e-01
      7.495000000000e+00      4.482943189238e-01
      2.797000000000e+00      2.849026107152e-01
      5.215000000000e-01      1.519485920608e-02
 s           8
      6.665000000000e+03     -2.932696526865e-04
      1.000000000000e+03     -2.318035473975e-03
      2.280000000000e+02     -1.149978603857e-02
      6.471000000000e+01     -4.682672700979e-02
      2.106000000000e+01     -1.284661687505e-01
      7.495000000000e+00     -3.012662724629e-01
      2.797000000000e+00     -2.556307023301e-01
      5.215000000000e-01      1.093793361012e+00
 s           1
      1.596000000000e-01      1.000000000000e+00
 s           1
      4.690000000000e-02      1.000000000000e+00
 p           3
      9.439000000000e+00      5.697925159004e-02
      2.002000000000e+00      3.132072115007e-01
      5.456000000000e-01      7.603767417375e-01
 p           1
      1.517000000000e-01      1.000000000000e+00
 p           1
      4.041000000000e-02      1.000000000000e+00
 d           1
      5.500000000000e-01      1.000000000000e+00
 d           1
      1.510000000000e-01      1.000000000000e+00

2
 s           8
      6.665000000000e+03      6.915839628130e-04
      1.000000000000e+03      5.325796152934e-03
      2.280000000000e+02      2.706072104203e-02
      6.471000000000e+01      1.016568461408e-01
      2.106000000000e+01      2.745748236174e-01
      7.495000000000e+00      4.482943189238e-01
      2.797000000000e+00      2.849026107152e-01
      5.215000000000e-01      1.519485920608e-02
 s           8
      6.665000000000e+03     -2.932696526865e-04
      1.000000000000e+03     -2.318035473975e-03
      2.280000000000e+02     -1.149978603857e-02
      6.471000000000e+01     -4.682672700979e-02
      2.106000000000e+01     -1.284661687505e-01
      7.495000000000e+00     -3.012662724629e-01
      2.797000000000e+00     -2.556307023301e-01
      5.215000000000e-01      1.093793361012e+00
 s           1
      1.596000000000e-01      1.000000000000e+00
 s           1
      4.690000000000e-02      1.000000000000e+00
 p           3
      9.439000000000e+00      5.697925159004e-02
      2.002000000000e+00      3.132072115007e-01
      5.456000000000e-01      7.603767417375e-01
 p           1
      1.517000000000e-01      1.000000000000e+00
 p           1
      4.041000000000e-02      1.000000000000e+00
 d           1
      5.500000000000e-01      1.000000000000e+00
 d           1
      1.510000000000e-01      1.000000000000e+00

3
 s           8
      6.665000000000e+03      6.915839628130e-04
      1.000000000000e+03      5.325796152934e-03
      2.280000000000e+02      2.706072104203e-02
      6.471000000000e+01      1.016568461408e-01
      2.106000000000e+01      2.745748236174e-01
      7.495000000000e+00      4.482943189238e-01
      2.797000000000e+00      2.849026107152e-01
      5.215000000000e-01      1.519485920608e-02
 s           8
      6.665000000000e+03     -2.932696526865e-04
      1.000000000000e+03     -2.318035473975e-03
      2.280000000000e+02     -1.149978603857e-02
      6.471000000000e+01     -4.682672700979e-02
      2.106000000000e+01     -1.284661687505e-01
      7.495000000000e+00     -3.012662724629e-01
      2.797000000000e+00     -2.556307023301e-01
      5.215000000000e-01      1.093793361012e+00
 s           1
      1.596000000000e-01      1.000000000000e+00
 s           1
      4.690000000000e-02      1.000000000000e+00
 p           3
      9.439000000000e+00      5.697925159004e-02
      2.002000000000e+00      3.132072115007e-01
      5.456000000000e-01      7.603767417375e-01
 p           1
      1.517000000000e-01      1.000000000000e+00
 p           1
      4.041000000000e-02      1.000000000000e+00
 d           1
      5.500000000000e-01      1.000000000000e+00
 d           1
      1.510000000000e-01      1.000000000000e+00

4
 s           8
      9.046000000000e+03      6.996174134255e-04
      1.357000000000e+03      5.386054629929e-03
      3.093000000000e+02      2.739102118906e-02
      8.773000000000e+01      1.031505919820e-01
      2.856000000000e+01      2.785706633174e-01
      1.021000000000e+01      4.482948494541e-01
      3.838000000000e+00      2.780859283953e-01
      7.466000000000e-01      1.543156123327e-02
 s           8
      9.046000000000e+03     -3.049900959534e-04
      1.357000000000e+03     -2.408026378508e-03
      3.093000000000e+02     -1.194444872518e-02
      8.773000000000e+01     -4.892599290902e-02
      2.856000000000e+01     -1.344727247250e-01
      1.021000000000e+01     -3.151125777001e-01
      3.838000000000e+00     -2.428578325496e-01
      7.466000000000e-01      1.094382206854e+00
 s           1
      2.248000000000e-01      1.000000000000e+00
 s           1
      6.124000000000e-02      1.000000000000e+00
 p           3
      1.355000000000e+01      5.890567677213e-02
      2.917000000000e+00      3.204611067143e-01
      7.973000000000e-01      7.530420617921e-01
 p           1
      2.185000000000e-01      1.000000000000e+00
 p           1
      5.611000000000e-02      1.000000000000e+00
 d           1
      8.170000000000e-01      1.000000000000e+00
 d           1
      2.300000000000e-01      1.000000000000e+00

5
 s           8
      4.570000000000e+03      6.955544180306e-04
      6.859000000000e+02      5.349572988100e-03
      1.565000000000e+02      2.711662870523e-02
      4.447000000000e+01      1.013150961206e-01
      1.448000000000e+01      2.718808293065e-01
      5.131000000000e+00      4.481159306152e-01
      1.898000000000e+00      2.899372621010e-01
      3.329000000000e-01      1.431283099861e-02
 s           8
      4.570000000000e+03     -2.812802240142e-04
      6.859000000000e+02     -2.219887811105e-03
      1.565000000000e+02     -1.101647150743e-02
      4.447000000000e+01     -4.434918985248e-02
      1.448000000000e+01     -1.209120479502e-01
      5.131000000000e+00     -2.807378995535e-01
      1.898000000000e+00     -2.660668087326e-01
      3.329000000000e-01      1.091784130514e+00
 s           1
      1.043000000000e-01      1.000000000000e+00
 s           1
      3.105000000000e-02      1.000000000000e+00
 p           3
      6.001000000000e+00      5.416586334015e-02
      1.241000000000e+00      3.023798901809e-01
      3.364000000000e-01      7.712922165481e-01
 p           1
      9.538000000000e-02      1.000000000000e+00
 p           1
      2.378000000000e-02      1.000000000000e+00
 d           1
      3.430000000000e-01      1.000000000000e+00
 d           1
      9.040000000000e-02      1.000000000000e+00

6
 s           8
      6.665000000000e+03      6.915839628130e-04
      1.000000000000e+03      5.325796152934e-03
      2.280000000000e+02      2.706072104203e-02
      6.471000000000e+01      1.016568461408e-01
      2.106000000000e+01      2.745748236174e-01
      7.495000000000e+00      4.482943189238e-01
      2.797000000000e+00      2.849026107152e-01
      5.215000000000e-01      1.519485920608e-02
 s           8
      6.665000000000e+03     -2.932696526865e-04
      1.000000000000e+03     -2.318035473975e-03
      2.280000000000e+02     -1.149978603857e-02
      6.471000000000e+01     -4.682672700979e-02
      2.106000000000e+01     -1.284661687505e-01
      7.495000000000e+00     -3.012662724629e-01
      2.797000000000e+00     -2.556307023301e-01
      5.215000000000e-01      1.093793361012e+00
 s           1
      1.596000000000e-01      1.000000000000e+00
 s           1
      4.690000000000e-02      1.000000000000e+00
 p           3
      9.439000000000e+00      5.697925159004e-02
      2.002000000000e+00      3.132072115007e-01
      5.456000000000e-01      7.603767417375e-01
 p           1
      1.517000000000e-01      1.000000000000e+00
 p           1
      4.041000000000e-02      1.000000000000e+00
 d           1
      5.500000000000e-01      1.000000000000e+00
 d           1
      1.510000000000e-01      1.000000000000e+00

7
 s           8
      6.665000000000e+03      6.915839628130e-04
      1.000000000000e+03      5.325796152934e-03
      2.280000000000e+02      2.706072104203e-02
      6.471000000000e+01      1.016568461408e-01
      2.106000000000e+01      2.745748236174e-01
      7.495000000000e+00      4.482943189238e-01
      2.797000000000e+00      2.849026107152e-01
      5.215000000000e-01      1.519485920608e-02
 s           8
      6.665000000000e+03     -2.932696526865e-04
      1.000000000000e+03     -2.318035473975e-03
      2.280000000000e+02     -1.149978603857e-02
      6.471000000000e+01     -4.682672700979e-02
      2.106000000000e+01     -1.284661687505e-01
      7.495000000000e+00     -3.012662724629e-01
      2.797000000000e+00     -2.556307023301e-01
      5.215000000000e-01      1.093793361012e+00
 s           1
      1.596000000000e-01      1.000000000000e+00
 s           1
      4.690000000000e-02      1.000000000000e+00
 p           3
      9.439000000000e+00      5.697925159004e-02
      2.002000000000e+00      3.132072115007e-01
      5.456000000000e-01      7.603767417375e-01
 p           1
      1.517000000000e-01      1.000000000000e+00
 p           1
      4.041000000000e-02      1.000000000000e+00
 d           1
      5.500000000000e-01      1.000000000000e+00
 d           1
      1.510000000000e-01      1.000000000000e+00

8
 s           8
      6.665000000000e+03      6.915839628130e-04
      1.000000000000e+03      5.325796152934e-03
      2.280000000000e+02      2.706072104203e-02
      6.471000000000e+01      1.016568461408e-01
      2.106000000000e+01      2.745748236174e-01
      7.495000000000e+00      4.482943189238e-01
      2.797000000000e+00      2.849026107152e-01
      5.215000000000e-01      1.519485920608e-02
 s           8
      6.665000000000e+03     -2.932696526865e-04
      1.000000000000e+03     -2.318035473975e-03
      2.280000000000e+02     -1.149978603857e-02
      6.471000000000e+01     -4.682672700979e-02
      2.106000000000e+01     -1.284661687505e-01
      7.495000000000e+00     -3.012662724629e-01
      2.797000000000e+00     -2.556307023301e-01
      5.215000000000e-01      1.093793361012e+00
 s           1
      1.596000000000e-01      1.000000000000e+00
 s           1
      4.690000000000e-02      1.000000000000e+00
 p           3
      9.439000000000e+00      5.697925159004e-02
      2.002000000000e+00      3.132072115007e-01
      5.456000000000e-01      7.603767417375e-01
 p           1
      1.517000000000e-01      1.000000000000e+00
 p           1
      4.041000000000e-02      1.000000000000e+00
 d           1
      5.500000000000e-01      1.000000000000e+00
 d           1
      1.510000000000e-01      1.000000000000e+00

9
 s           8
      6.665000000000e+03      6.915839628130e-04
      1.000000000000e+03      5.325796152934e-03
      2.280000000000e+02      2.706072104203e-02
      6.471000000000e+01      1.016568461408e-01
      2.106000000000e+01      2.745748236174e-01
      7.495000000000e+00      4.482943189238e-01
      2.797000000000e+00      2.849026107152e-01
      5.215000000000e-01      1.519485920608e-02
 s           8
      6.665000000000e+03     -2.932696526865e-04
      1.000000000000e+03     -2.318035473975e-03
      2.280000000000e+02     -1.149978603857e-02
      6.471000000000e+01     -4.682672700979e-02
      2.106000000000e+01     -1.284661687505e-01
      7.495000000000e+00     -3.012662724629e-01
      2.797000000000e+00     -2.556307023301e-01
      5.215000000000e-01      1.093793361012e+00
 s           1
      1.596000000000e-01      1.000000000000e+00
 s           1
      4.690000000000e-02      1.000000000000e+00
 p           3
      9.439000000000e+00      5.697925159004e-02
      2.002000000000e+00      3.132072115007e-01
      5.456000000000e-01      7.603767417375e-01
 p           1
      1.517000000000e-01      1.000000000000e+00
 p           1
      4.041000000000e-02      1.000000000000e+00
 d           1
      5.500000000000e-01      1.000000000000e+00
 d           1
      1.510000000000e-01      1.000000000000e+00

10
 s           8
      6.665000000000e+03      6.915839628130e-04
      1.000000000000e+03      5.325796152934e-03
      2.280000000000e+02      2.706072104203e-02
      6.471000000000e+01      1.016568461408e-01
      2.106000000000e+01      2.745748236174e-01
      7.495000000000e+00      4.482943189238e-01
      2.797000000000e+00      2.849026107152e-01
      5.215000000000e-01      1.519485920608e-02
 s           8
      6.665000000000e+03     -2.932696526865e-04
      1.000000000000e+03     -2.318035473975e-03
      2.280000000000e+02     -1.149978603857e-02
      6.471000000000e+01     -4.682672700979e-02
      2.106000000000e+01     -1.284661687505e-01
      7.495000000000e+00     -3.012662724629e-01
      2.797000000000e+00     -2.556307023301e-01
      5.215000000000e-01      1.093793361012e+00
 s           1
      1.596000000000e-01      1.000000000000e+00
 s           1
      4.690000000000e-02      1.000000000000e+00
 p           3
      9.439000000000e+00      5.697925159004e-02
      2.002000000000e+00      3.132072115007e-01
      5.456000000000e-01      7.603767417375e-01
 p           1
      1.517000000000e-01      1.000000000000e+00
 p           1
      4.041000000000e-02      1.000000000000e+00
 d           1
      5.500000000000e-01      1.000000000000e+00
 d           1
      1.510000000000e-01      1.000000000000e+00

11
 s           3
      1.301000000000e+01      3.349872639000e-02
      1.962000000000e+00      2.348008011741e-01
      4.446000000000e-01      8.136829578829e-01
 s           1
      1.220000000000e-01      1.000000000000e+00
 s           1
      2.974000000000e-02      1.000000000000e+00
 p           1
      7.270000000000e-01      1.000000000000e+00
 p           1
      1.410000000000e-01      1.000000000000e+00

12
 s           3
      1.301000000000e+01      3.349872639000e-02
      1.962000000000e+00      2.348008011741e-01
      4.446000000000e-01      8.136829578829e-01
 s           1
      1.220000000000e-01      1.000000000000e+00
 s           1
      2.974000000000e-02      1.000000000000e+00
 p           1
      7.270000000000e-01      1.000000000000e+00
 p           1
      1.410000000000e-01      1.000000000000e+00

13
 s           3
      1.301000000000e+01      3.349872639000e-02
      1.962000000000e+00      2.348008011741e-01
      4.446000000000e-01      8.136829578829e-01
 s           1
      1.220000000000e-01      1.000000000000e+00
 s           1
      2.974000000000e-02      1.000000000000e+00
 p           1
      7.270000000000e-01      1.000000000000e+00
 p           1
      1.410000000000e-01      1.000000000000e+00

14
 s           3
      1.301000000000e+01      3.349872639000e-02
      1.962000000000e+00      2.348008011741e-01
      4.446000000000e-01      8.136829578829e-01
 s           1
      1.220000000000e-01      1.000000000000e+00
 s           1
      2.974000000000e-02      1.000000000000e+00
 p           1
      7.270000000000e-01      1.000000000000e+00
 p           1
      1.410000000000e-01      1.000000000000e+00

15
 s           3
      1.301000000000e+01      3.349872639000e-02
      1.962000000000e+00      2.348008011741e-01
      4.446000000000e-01      8.136829578829e-01
 s           1
      1.220000000000e-01      1.000000000000e+00
 s           1
      2.974000000000e-02      1.000000000000e+00
 p           1
      7.270000000000e-01      1.000000000000e+00
 p           1
      1.410000000000e-01      1.000000000000e+00

16
 s           3
      1.301000000000e+01      3.349872639000e-02
      1.962000000000e+00      2.348008011741e-01
      4.446000000000e-01      8.136829578829e-01
 s           1
      1.220000000000e-01      1.000000000000e+00
 s           1
      2.974000000000e-02      1.000000000000e+00
 p           1
      7.270000000000e-01      1.000000000000e+00
 p           1
      1.410000000000e-01      1.000000000000e+00

17
 s           3
      1.301000000000e+01      3.349872639000e-02
      1.962000000000e+00      2.348008011741e-01
      4.446000000000e-01      8.136829578829e-01
 s           1
      1.220000000000e-01      1.000000000000e+00
 s           1
      2.974000000000e-02      1.000000000000e+00
 p           1
      7.270000000000e-01      1.000000000000e+00
 p           1
      1.410000000000e-01      1.000000000000e+00

18
 s           3
      1.301000000000e+01      3.349872639000e-02
      1.962000000000e+00      2.348008011741e-01
      4.446000000000e-01      8.136829578829e-01
 s           1
      1.220000000000e-01      1.000000000000e+00
 s           1
      2.974000000000e-02      1.000000000000e+00
 p           1
      7.270000000000e-01      1.000000000000e+00
 p           1
      1.410000000000e-01      1.000000000000e+00


[5D]
[7F]
[9G]
[MO]
 Ene=  -15.608078
 Spin=  Alpha
 Occup=    2.000000
   1     0.0001007079469631
   2     0.0001756440104294
   3    -0.0074443794448223
   4     0.0021584426773027
   5     0.0000054445653584
   6     0.0000006944451974
   7    -0.0000174189406329
   8     0.0008609578901051
   9    -0.0092489358152800
  10    -0.0011592603511190
  11     0.0019837211622748
  12     0.0029598633106373
  13     0.0008331394222854
  14     0.0000104079924678
  15    -0.0000105308961329
  16    -0.0000003160264096
  17     0.0000068315311313
  18     0.0000328843132199
  19     0.0001847334964143
  20     0.0005031900438480
  21     0.0002922707144258
  22     0.0016796918974677
  23     0.0019756670749181
  24    -0.0000422199925676
  25    -0.0000443099266770
  26    -0.0093569982937207
  27     0.0050147239012194
  28    -0.0000696171338273
  29     0.0000474423171965
  30     0.0000091066847525
  31     0.0072872976673614
  32    -0.0128214781391402
  33    -0.0009389740524133
  34    -0.0031307422054394
  35     0.0036758618140682
  36     0.0000802473654354
  37    -0.0000173104696927
  38     0.0000317610853037
  39     0.0000082209524997
  40     0.0001209008837472
  41     0.0000615695458630
  42    -0.0005905710275086
  43     0.0000610624050825
  44     0.0011919883061231
  45    -0.0038623894072264
  46     0.0028018533170220
  47    -0.0001857608666981
  48    -0.0003078129400056
  49     0.0059554370947440
  50    -0.0186367916879984
  51     0.0003008270984849
  52     0.0001232267360978
  53     0.0000785609853944
  54     0.0170438474684514
  55     0.0014262684543743
  56     0.0021283560494304
  57    -0.0025503145556816
  58     0.0025411682225277
  59     0.0002376601626324
  60     0.0000440838139936
  61    -0.0000094187384425
  62    -0.0000287663567149
  63     0.0001559231373700
  64     0.0001275719309234
  65     0.0006318766977239
  66    -0.0007261700841129
  67    -0.0013612685682920
  68     0.0011510605730280
  69    -0.0072783012280317
  70    -1.0031248104067685
  71    -0.0053311586961117
  72     0.0288637642720339
  73     0.0201062667306604
  74    -0.0008638473085205
  75    -0.0001754494668865
  76     0.0015795593583198
  77     0.0034997139283890
  78     0.0014692157848673
  79    -0.0053722039471917
  80     0.0040444948798136
  81     0.0008229600520935
  82    -0.0029016743387551
  83    -0.0001209889117846
  84    -0.0001176448831644
  85     0.0000249968513858
  86    -0.0001132339253790
  87    -0.0000911777879970
  88     0.0006270693466601
  89     0.0011562503854356
  90     0.0003985340046474
  91     0.0010308598919168
  92     0.0005242177726880
  93    -0.0001509381431788
  94    -0.0003620145681463
  95    -0.0030534439918831
  96     0.0028417680276700
  97     0.0000287941051267
  98    -0.0004599030901865
  99    -0.0001515213363166
 100     0.0001162917253735
 101     0.0021623708385635
 102     0.0007800709784035
 103     0.0011916765754720
 104     0.0011885954191932
 105     0.0006102067217669
 106     0.0002395602853726
 107    -0.0000040124134940
 108    -0.0001318890929809
 109     0.0001847342324054
 110    -0.0002232196087289
 111    -0.0005941768499527
 112    -0.0001180363437476
 113     0.0006018183742380
 114    -0.0021310348664274
 115    -0.0003978710180731
 116    -0.0000308389246242
 117    -0.0000284174495277
 118    -0.0033934485131736
 119     0.0034352806129682
 120    -0.0000062000889756
 121     0.0000164486717195
 122     0.0000011241694957
 123    -0.0025344079391610
 124    -0.0007379307378023
 125    -0.0009918888215690
 126     0.0012605445494736
 127    -0.0005353370495733
 128     0.0002399534473977
 129    -0.0000525829570803
 130    -0.0000154085109364
 131     0.0000133249961481
 132    -0.0000887704163348
 133    -0.0000553534349525
 134    -0.0000434115561185
 135    -0.0001133855886895
 136    -0.0001269000209834
 137    -0.0006250159237414
 138    -0.0002137667248045
 139    -0.0000916448352083
 140    -0.0001311204243379
 141     0.0012047681443234
 142     0.0090837122053733
 143     0.0000278162003207
 144     0.0000028182849432
 145     0.0000259088977051
 146     0.0021328563953957
 147    -0.0004693842773762
 148     0.0005657195746042
 149    -0.0018372292851382
 150     0.0025264847626881
 151     0.0000849768970672
 152    -0.0000574177690959
 153     0.0000627741930839
 154     0.0000391085295828
 155    -0.0000132242168255
 156     0.0000367883872778
 157     0.0001976698121417
 158    -0.0000540637049989
 159     0.0003933154325808
 160    -0.0005911316282255
 161     0.0007444664143050
 162    -0.0000637833223116
 163    -0.0001000601998319
 164     0.0042626782060146
 165    -0.0074522489958769
 166    -0.0000159493753686
 167     0.0000391681865411
 168     0.0000113245010413
 169     0.0014251346291141
 170     0.0002876108981877
 171    -0.0001062899675735
 172    -0.0018730138564396
 173     0.0012387111632766
 174    -0.0003129439461594
 175    -0.0000236508439835
 176     0.0000267463703966
 177     0.0000107623732744
 178    -0.0000099901193420
 179     0.0000067675976689
 180    -0.0001308405697613
 181    -0.0000186355554008
 182    -0.0001589492451083
 183    -0.0003235324310308
 184    -0.0004662864960394
 185     0.0000164521826966
 186     0.0000519340614921
 187    -0.0036573327135674
 188     0.0098059891397017
 189     0.0000474061816420
 190    -0.0000123871295432
 191     0.0000608519741205
 192    -0.0006841062393475
 193     0.0015120375350947
 194     0.0000724035529469
 195     0.0030797472125308
 196     0.0001816489036132
 197     0.0005229317014157
 198    -0.0000842659973695
 199     0.0000724052602614
 200     0.0000130393632497
 201     0.0001354597058866
 202    -0.0000125231286556
 203     0.0004060419215295
 204    -0.0002266682038936
 205    -0.0003705241353897
 206     0.0006130282009531
 207    -0.0003538474824388
 208    -0.0001526600608439
 209    -0.0002374805624181
 210    -0.0091576000916336
 211    -0.0167220954892312
 212    -0.0002469380136043
 213     0.0000417783899592
 214    -0.0003175611276243
 215    -0.0045773115344640
 216     0.0020417851826362
 217    -0.0080256920728786
 218     0.0024802076325051
 219     0.0011725884964197
 220    -0.0025021049428260
 221     0.0001658103638819
 222     0.0001859532238103
 223     0.0000412632929752
 224    -0.0001962883057508
 225    -0.0000895254939815
 226    -0.0030785741549908
 227    -0.0031128516420258
 228     0.0012627840098524
 229     0.0012072572613403
 230     0.0011021672824842
 231    -0.0000063364457722
 232    -0.0021204557812158
 233    -0.0002553375747931
 234    -0.0000238440381334
 235     0.0000037164192648
 236     0.0000076582760332
 237     0.0002823572348206
 238    -0.0006674677871014
 239     0.0000703794412139
 240    -0.0000712662435709
 241     0.0019280999458693
 242    -0.0001365470306046
 243    -0.0000327899534848
 244     0.0000002595554891
 245    -0.0000121372748046
 246    -0.0007121020736958
 247    -0.0009024101021171
 248    -0.0002919676890099
 249     0.0002302131333952
 250    -0.0007451503215123
 251    -0.0012002794341729
 252    -0.0000254300225475
 253    -0.0001274293509638
 254    -0.0000092473051612
 255     0.0018248492665109
 256     0.0005222884547589
 257     0.0004771647994938
 258    -0.0000895597721895
 259    -0.0014047856937678
 260     0.0000805198663725
 261     0.0000077829377910
 262    -0.0000364660596624
 263    -0.0000036055138622
 264     0.0004085661674599
 265    -0.0001383553337147
 266     0.0000193139283846
 267    -0.0000810424804087
 268    -0.0023809428791054
 269     0.0020549956615662
 270     0.0000203726211994
 271    -0.0000208577143081
 272     0.0000024429855043
 273    -0.0000479762732841
 274    -0.0005575930139804
 275    -0.0001493178805533
 276    -0.0000147714831691
 277     0.0012899752968796
 278    -0.0000866339245057
 279    -0.0000257920232763
 280    -0.0000004313281079
 281     0.0000142652419445
 282     0.0002389699946544
 283     0.0000816855586747
 284    -0.0000592590613190
 285     0.0000121675099289
 286    -0.0019333166558650
 287     0.0006407589238029
 288    -0.0000265400616051
 289     0.0000165648200585
 290     0.0000181858914266
 291    -0.0003433089352509
 292     0.0005795180380343
 293     0.0001226922110170
 294     0.0002271152174418
 295    -0.0027865259566529
 296    -0.0013491005851670
 297     0.0000008353206317
 298    -0.0000449688656422
 299     0.0002261600682247
 300    -0.0012419218050635
 301     0.0004313895928439
 302    -0.0011567722225396
 Ene=  -11.311097
 Spin=  Alpha
 Occup=    2.000000
   1    -0.0000561134057212
   2    -0.0000969237113704
   3     0.0053483668573770
   4    -0.0093116013443161
   5    -0.0000178964200800
   6    -0.0000081781943293
   7    -0.0000269882411428
   8    -0.0011116387218594
   9     0.0068242435514036
  10     0.0005121351947923
  11     0.0023955103128568
  12    -0.0007741741157899
  13     0.0002590084446378
  14    -0.0000464946330993
  15     0.0000166447281860
  16     0.0000079363249238
  17    -0.0000032409631687
  18    -0.0000161013822988
  19    -0.0000402259133668
  20    -0.0000489112192929
  21    -0.0001600284363516
  22    -0.0005151832806694
  23    -0.0013606805394468
  24     0.0000567142590903
  25     0.0000926918202406
  26     0.0105887991927425
  27     0.0117687801116815
  28    -0.0001733796562910
  29     0.0000493374167117
  30    -0.0000305047110464
  31    -0.0084884632280821
  32     0.0086685291773538
  33     0.0002484096461385
  34    -0.0028629029251174
  35    -0.0009339475066675
  36    -0.0002362318763749
  37    -0.0000135564124196
  38     0.0000113476217115
  39    -0.0000181671542668
  40     0.0000858632515176
  41     0.0000050222188265
  42    -0.0000234417971435
  43     0.0000104134495783
  44    -0.0008989090188901
  45     0.0037704234416049
  46    -0.0020523061177083
  47    -0.0002587743758917
  48    -0.0000108129469030
  49    -0.0128329313039770
  50    -0.0075016280503304
  51     0.0002399327504682
  52     0.0000115737904959
  53     0.0001652357335368
  54    -0.0114231296256800
  55     0.0045748182301511
  56    -0.0013436566714570
  57    -0.0018092745551779
  58     0.0027711674216879
  59    -0.0003741953903479
  60     0.0000632258451828
  61     0.0000706418668883
  62    -0.0000477833312300
  63     0.0001487242988311
  64     0.0000954782309048
  65     0.0008303009122135
  66     0.0005331230040003
  67     0.0007863597086474
  68    -0.0000534463892818
  69     0.0053510043288476
  70     0.0002012484004986
  71     0.0008748229856445
  72    -0.0047582736020485
  73    -0.0005121485852603
  74    -0.0004519273700272
  75     0.0003240137128601
  76     0.0000046231389361
  77    -0.0019959578779408
  78    -0.0007474069694022
  79     0.0014535289760998
  80    -0.0027387813238348
  81    -0.0000439153410228
  82     0.0018892594677147
  83    -0.0000049860061629
  84    -0.0001170329530555
  85    -0.0000138015410141
  86    -0.0001090304940138
  87    -0.0000707570270076
  88    -0.0016122560713772
  89    -0.0002925741363661
  90     0.0000867658358389
  91     0.0005010645031627
  92     0.0003694165065365
  93     0.0001657099926719
  94     0.0003051996643828
  95     0.0046657088669430
  96    -0.0011827591734260
  97    -0.0000379007869674