[Molden Format]
[Atoms] Angs
 c       1                    6  2.430254435107e+00 -6.725491735146e-01  6.821689505959e-01
 c       2                    6  2.316475443347e+00  7.538447231830e-01  6.744679511536e-01
 c       3                    6  1.133383529029e+00  1.381178677750e+00  3.431449751487e-01
 n       4                    7 -5.704388475876e-03  6.650757296119e-01  5.852999576114e-03
 b       5                    5  5.841610687939e-03 -8.145661632294e-01 -6.635999519407e-03
 c       6                    6  1.339670514089e+00 -1.467442115947e+00  3.611359738458e-01
 c       7                    6 -1.313221293783e+00 -1.486279114583e+00 -3.950059713929e-01
 c       8                    6 -2.415301213968e+00 -7.078861709554e-01 -7.045359489761e-01
 c       9                    6 -2.328383220263e+00  7.268687251367e-01 -6.558079525050e-01
 c      10                    6 -1.162121304726e+00  1.367982678706e+00 -3.102949775278e-01
 h      11                    1  3.397063365089e+00 -1.111142141751e+00  9.505249311610e-01
 h      12                    1  3.173280381296e+00  1.380172677823e+00  9.321699324903e-01
 h      13                    1  1.038352535911e+00  2.470082598890e+00  3.370779755881e-01
 h      14                    1  1.469786504666e+00 -2.554853037194e+00  3.819219723404e-01
 h      15                    1 -1.419260286103e+00 -2.575509035698e+00 -4.407709680785e-01
 h      16                    1 -3.372699144631e+00 -1.156163138490e+00 -9.885319284085e-01
 h      17                    1 -3.198524157245e+00  1.342974680517e+00 -8.946929352045e-01
 h      18                    1 -1.088893310029e+00  2.458209599749e+00 -2.721889802875e-01
[GTO]
1
 s           8
      6.665000000000e+03      6.915839628130e-04
      1.000000000000e+03      5.325796152934e-03
      2.280000000000e+02      2.706072104203e-02
      6.471000000000e+01      1.016568461408e-01
      2.106000000000e+01      2.745748236174e-01
      7.495000000000e+00      4.482943189238e-01
      2.797000000000e+00      2.849026107152e-01
      5.215000000000e-01      1.519485920608e-02
 s           8
      6.665000000000e+03     -2.932696526865e-04
      1.000000000000e+03     -2.318035473975e-03
      2.280000000000e+02     -1.149978603857e-02
      6.471000000000e+01     -4.682672700979e-02
      2.106000000000e+01     -1.284661687505e-01
      7.495000000000e+00     -3.012662724629e-01
      2.797000000000e+00     -2.556307023301e-01
      5.215000000000e-01      1.093793361012e+00
 s           1
      1.596000000000e-01      1.000000000000e+00
 s           1
      4.690000000000e-02      1.000000000000e+00
 p           3
      9.439000000000e+00      5.697925159004e-02
      2.002000000000e+00      3.132072115007e-01
      5.456000000000e-01      7.603767417375e-01
 p           1
      1.517000000000e-01      1.000000000000e+00
 p           1
      4.041000000000e-02      1.000000000000e+00
 d           1
      5.500000000000e-01      1.000000000000e+00
 d           1
      1.510000000000e-01      1.000000000000e+00

2
 s           8
      6.665000000000e+03      6.915839628130e-04
      1.000000000000e+03      5.325796152934e-03
      2.280000000000e+02      2.706072104203e-02
      6.471000000000e+01      1.016568461408e-01
      2.106000000000e+01      2.745748236174e-01
      7.495000000000e+00      4.482943189238e-01
      2.797000000000e+00      2.849026107152e-01
      5.215000000000e-01      1.519485920608e-02
 s           8
      6.665000000000e+03     -2.932696526865e-04
      1.000000000000e+03     -2.318035473975e-03
      2.280000000000e+02     -1.149978603857e-02
      6.471000000000e+01     -4.682672700979e-02
      2.106000000000e+01     -1.284661687505e-01
      7.495000000000e+00     -3.012662724629e-01
      2.797000000000e+00     -2.556307023301e-01
      5.215000000000e-01      1.093793361012e+00
 s           1
      1.596000000000e-01      1.000000000000e+00
 s           1
      4.690000000000e-02      1.000000000000e+00
 p           3
      9.439000000000e+00      5.697925159004e-02
      2.002000000000e+00      3.132072115007e-01
      5.456000000000e-01      7.603767417375e-01
 p           1
      1.517000000000e-01      1.000000000000e+00
 p           1
      4.041000000000e-02      1.000000000000e+00
 d           1
      5.500000000000e-01      1.000000000000e+00
 d           1
      1.510000000000e-01      1.000000000000e+00

3
 s           8
      6.665000000000e+03      6.915839628130e-04
      1.000000000000e+03      5.325796152934e-03
      2.280000000000e+02      2.706072104203e-02
      6.471000000000e+01      1.016568461408e-01
      2.106000000000e+01      2.745748236174e-01
      7.495000000000e+00      4.482943189238e-01
      2.797000000000e+00      2.849026107152e-01
      5.215000000000e-01      1.519485920608e-02
 s           8
      6.665000000000e+03     -2.932696526865e-04
      1.000000000000e+03     -2.318035473975e-03
      2.280000000000e+02     -1.149978603857e-02
      6.471000000000e+01     -4.682672700979e-02
      2.106000000000e+01     -1.284661687505e-01
      7.495000000000e+00     -3.012662724629e-01
      2.797000000000e+00     -2.556307023301e-01
      5.215000000000e-01      1.093793361012e+00
 s           1
      1.596000000000e-01      1.000000000000e+00
 s           1
      4.690000000000e-02      1.000000000000e+00
 p           3
      9.439000000000e+00      5.697925159004e-02
      2.002000000000e+00      3.132072115007e-01
      5.456000000000e-01      7.603767417375e-01
 p           1
      1.517000000000e-01      1.000000000000e+00
 p           1
      4.041000000000e-02      1.000000000000e+00
 d           1
      5.500000000000e-01      1.000000000000e+00
 d           1
      1.510000000000e-01      1.000000000000e+00

4
 s           8
      9.046000000000e+03      6.996174134255e-04
      1.357000000000e+03      5.386054629929e-03
      3.093000000000e+02      2.739102118906e-02
      8.773000000000e+01      1.031505919820e-01
      2.856000000000e+01      2.785706633174e-01
      1.021000000000e+01      4.482948494541e-01
      3.838000000000e+00      2.780859283953e-01
      7.466000000000e-01      1.543156123327e-02
 s           8
      9.046000000000e+03     -3.049900959534e-04
      1.357000000000e+03     -2.408026378508e-03
      3.093000000000e+02     -1.194444872518e-02
      8.773000000000e+01     -4.892599290902e-02
      2.856000000000e+01     -1.344727247250e-01
      1.021000000000e+01     -3.151125777001e-01
      3.838000000000e+00     -2.428578325496e-01
      7.466000000000e-01      1.094382206854e+00
 s           1
      2.248000000000e-01      1.000000000000e+00
 s           1
      6.124000000000e-02      1.000000000000e+00
 p           3
      1.355000000000e+01      5.890567677213e-02
      2.917000000000e+00      3.204611067143e-01
      7.973000000000e-01      7.530420617921e-01
 p           1
      2.185000000000e-01      1.000000000000e+00
 p           1
      5.611000000000e-02      1.000000000000e+00
 d           1
      8.170000000000e-01      1.000000000000e+00
 d           1
      2.300000000000e-01      1.000000000000e+00

5
 s           8
      4.570000000000e+03      6.955544180306e-04
      6.859000000000e+02      5.349572988100e-03
      1.565000000000e+02      2.711662870523e-02
      4.447000000000e+01      1.013150961206e-01
      1.448000000000e+01      2.718808293065e-01
      5.131000000000e+00      4.481159306152e-01
      1.898000000000e+00      2.899372621010e-01
      3.329000000000e-01      1.431283099861e-02
 s           8
      4.570000000000e+03     -2.812802240142e-04
      6.859000000000e+02     -2.219887811105e-03
      1.565000000000e+02     -1.101647150743e-02
      4.447000000000e+01     -4.434918985248e-02
      1.448000000000e+01     -1.209120479502e-01
      5.131000000000e+00     -2.807378995535e-01
      1.898000000000e+00     -2.660668087326e-01
      3.329000000000e-01      1.091784130514e+00
 s           1
      1.043000000000e-01      1.000000000000e+00
 s           1
      3.105000000000e-02      1.000000000000e+00
 p           3
      6.001000000000e+00      5.416586334015e-02
      1.241000000000e+00      3.023798901809e-01
      3.364000000000e-01      7.712922165481e-01
 p           1
      9.538000000000e-02      1.000000000000e+00
 p           1
      2.378000000000e-02      1.000000000000e+00
 d           1
      3.430000000000e-01      1.000000000000e+00
 d           1
      9.040000000000e-02      1.000000000000e+00

6
 s           8
      6.665000000000e+03      6.915839628130e-04
      1.000000000000e+03      5.325796152934e-03
      2.280000000000e+02      2.706072104203e-02
      6.471000000000e+01      1.016568461408e-01
      2.106000000000e+01      2.745748236174e-01
      7.495000000000e+00      4.482943189238e-01
      2.797000000000e+00      2.849026107152e-01
      5.215000000000e-01      1.519485920608e-02
 s           8
      6.665000000000e+03     -2.932696526865e-04
      1.000000000000e+03     -2.318035473975e-03
      2.280000000000e+02     -1.149978603857e-02
      6.471000000000e+01     -4.682672700979e-02
      2.106000000000e+01     -1.284661687505e-01
      7.495000000000e+00     -3.012662724629e-01
      2.797000000000e+00     -2.556307023301e-01
      5.215000000000e-01      1.093793361012e+00
 s           1
      1.596000000000e-01      1.000000000000e+00
 s           1
      4.690000000000e-02      1.000000000000e+00
 p           3
      9.439000000000e+00      5.697925159004e-02
      2.002000000000e+00      3.132072115007e-01
      5.456000000000e-01      7.603767417375e-01
 p           1
      1.517000000000e-01      1.000000000000e+00
 p           1
      4.041000000000e-02      1.000000000000e+00
 d           1
      5.500000000000e-01      1.000000000000e+00
 d           1
      1.510000000000e-01      1.000000000000e+00

7
 s           8
      6.665000000000e+03      6.915839628130e-04
      1.000000000000e+03      5.325796152934e-03
      2.280000000000e+02      2.706072104203e-02
      6.471000000000e+01      1.016568461408e-01
      2.106000000000e+01      2.745748236174e-01
      7.495000000000e+00      4.482943189238e-01
      2.797000000000e+00      2.849026107152e-01
      5.215000000000e-01      1.519485920608e-02
 s           8
      6.665000000000e+03     -2.932696526865e-04
      1.000000000000e+03     -2.318035473975e-03
      2.280000000000e+02     -1.149978603857e-02
      6.471000000000e+01     -4.682672700979e-02
      2.106000000000e+01     -1.284661687505e-01
      7.495000000000e+00     -3.012662724629e-01
      2.797000000000e+00     -2.556307023301e-01
      5.215000000000e-01      1.093793361012e+00
 s           1
      1.596000000000e-01      1.000000000000e+00
 s           1
      4.690000000000e-02      1.000000000000e+00
 p           3
      9.439000000000e+00      5.697925159004e-02
      2.002000000000e+00      3.132072115007e-01
      5.456000000000e-01      7.603767417375e-01
 p           1
      1.517000000000e-01      1.000000000000e+00
 p           1
      4.041000000000e-02      1.000000000000e+00
 d           1
      5.500000000000e-01      1.000000000000e+00
 d           1
      1.510000000000e-01      1.000000000000e+00

8
 s           8
      6.665000000000e+03      6.915839628130e-04
      1.000000000000e+03      5.325796152934e-03
      2.280000000000e+02      2.706072104203e-02
      6.471000000000e+01      1.016568461408e-01
      2.106000000000e+01      2.745748236174e-01
      7.495000000000e+00      4.482943189238e-01
      2.797000000000e+00      2.849026107152e-01
      5.215000000000e-01      1.519485920608e-02
 s           8
      6.665000000000e+03     -2.932696526865e-04
      1.000000000000e+03     -2.318035473975e-03
      2.280000000000e+02     -1.149978603857e-02
      6.471000000000e+01     -4.682672700979e-02
      2.106000000000e+01     -1.284661687505e-01
      7.495000000000e+00     -3.012662724629e-01
      2.797000000000e+00     -2.556307023301e-01
      5.215000000000e-01      1.093793361012e+00
 s           1
      1.596000000000e-01      1.000000000000e+00
 s           1
      4.690000000000e-02      1.000000000000e+00
 p           3
      9.439000000000e+00      5.697925159004e-02
      2.002000000000e+00      3.132072115007e-01
      5.456000000000e-01      7.603767417375e-01
 p           1
      1.517000000000e-01      1.000000000000e+00
 p           1
      4.041000000000e-02      1.000000000000e+00
 d           1
      5.500000000000e-01      1.000000000000e+00
 d           1
      1.510000000000e-01      1.000000000000e+00

9
 s           8
      6.665000000000e+03      6.915839628130e-04
      1.000000000000e+03      5.325796152934e-03
      2.280000000000e+02      2.706072104203e-02
      6.471000000000e+01      1.016568461408e-01
      2.106000000000e+01      2.745748236174e-01
      7.495000000000e+00      4.482943189238e-01
      2.797000000000e+00      2.849026107152e-01
      5.215000000000e-01      1.519485920608e-02
 s           8
      6.665000000000e+03     -2.932696526865e-04
      1.000000000000e+03     -2.318035473975e-03
      2.280000000000e+02     -1.149978603857e-02
      6.471000000000e+01     -4.682672700979e-02
      2.106000000000e+01     -1.284661687505e-01
      7.495000000000e+00     -3.012662724629e-01
      2.797000000000e+00     -2.556307023301e-01
      5.215000000000e-01      1.093793361012e+00
 s           1
      1.596000000000e-01      1.000000000000e+00
 s           1
      4.690000000000e-02      1.000000000000e+00
 p           3
      9.439000000000e+00      5.697925159004e-02
      2.002000000000e+00      3.132072115007e-01
      5.456000000000e-01      7.603767417375e-01
 p           1
      1.517000000000e-01      1.000000000000e+00
 p           1
      4.041000000000e-02      1.000000000000e+00
 d           1
      5.500000000000e-01      1.000000000000e+00
 d           1
      1.510000000000e-01      1.000000000000e+00

10
 s           8
      6.665000000000e+03      6.915839628130e-04
      1.000000000000e+03      5.325796152934e-03
      2.280000000000e+02      2.706072104203e-02
      6.471000000000e+01      1.016568461408e-01
      2.106000000000e+01      2.745748236174e-01
      7.495000000000e+00      4.482943189238e-01
      2.797000000000e+00      2.849026107152e-01
      5.215000000000e-01      1.519485920608e-02
 s           8
      6.665000000000e+03     -2.932696526865e-04
      1.000000000000e+03     -2.318035473975e-03
      2.280000000000e+02     -1.149978603857e-02
      6.471000000000e+01     -4.682672700979e-02
      2.106000000000e+01     -1.284661687505e-01
      7.495000000000e+00     -3.012662724629e-01
      2.797000000000e+00     -2.556307023301e-01
      5.215000000000e-01      1.093793361012e+00
 s           1
      1.596000000000e-01      1.000000000000e+00
 s           1
      4.690000000000e-02      1.000000000000e+00
 p           3
      9.439000000000e+00      5.697925159004e-02
      2.002000000000e+00      3.132072115007e-01
      5.456000000000e-01      7.603767417375e-01
 p           1
      1.517000000000e-01      1.000000000000e+00
 p           1
      4.041000000000e-02      1.000000000000e+00
 d           1
      5.500000000000e-01      1.000000000000e+00
 d           1
      1.510000000000e-01      1.000000000000e+00

11
 s           3
      1.301000000000e+01      3.349872639000e-02
      1.962000000000e+00      2.348008011741e-01
      4.446000000000e-01      8.136829578829e-01
 s           1
      1.220000000000e-01      1.000000000000e+00
 s           1
      2.974000000000e-02      1.000000000000e+00
 p           1
      7.270000000000e-01      1.000000000000e+00
 p           1
      1.410000000000e-01      1.000000000000e+00

12
 s           3
      1.301000000000e+01      3.349872639000e-02
      1.962000000000e+00      2.348008011741e-01
      4.446000000000e-01      8.136829578829e-01
 s           1
      1.220000000000e-01      1.000000000000e+00
 s           1
      2.974000000000e-02      1.000000000000e+00
 p           1
      7.270000000000e-01      1.000000000000e+00
 p           1
      1.410000000000e-01      1.000000000000e+00

13
 s           3
      1.301000000000e+01      3.349872639000e-02
      1.962000000000e+00      2.348008011741e-01
      4.446000000000e-01      8.136829578829e-01
 s           1
      1.220000000000e-01      1.000000000000e+00
 s           1
      2.974000000000e-02      1.000000000000e+00
 p           1
      7.270000000000e-01      1.000000000000e+00
 p           1
      1.410000000000e-01      1.000000000000e+00

14
 s           3
      1.301000000000e+01      3.349872639000e-02
      1.962000000000e+00      2.348008011741e-01
      4.446000000000e-01      8.136829578829e-01
 s           1
      1.220000000000e-01      1.000000000000e+00
 s           1
      2.974000000000e-02      1.000000000000e+00
 p           1
      7.270000000000e-01      1.000000000000e+00
 p           1
      1.410000000000e-01      1.000000000000e+00

15
 s           3
      1.301000000000e+01      3.349872639000e-02
      1.962000000000e+00      2.348008011741e-01
      4.446000000000e-01      8.136829578829e-01
 s           1
      1.220000000000e-01      1.000000000000e+00
 s           1
      2.974000000000e-02      1.000000000000e+00
 p           1
      7.270000000000e-01      1.000000000000e+00
 p           1
      1.410000000000e-01      1.000000000000e+00

16
 s           3
      1.301000000000e+01      3.349872639000e-02
      1.962000000000e+00      2.348008011741e-01
      4.446000000000e-01      8.136829578829e-01
 s           1
      1.220000000000e-01      1.000000000000e+00
 s           1
      2.974000000000e-02      1.000000000000e+00
 p           1
      7.270000000000e-01      1.000000000000e+00
 p           1
      1.410000000000e-01      1.000000000000e+00

17
 s           3
      1.301000000000e+01      3.349872639000e-02
      1.962000000000e+00      2.348008011741e-01
      4.446000000000e-01      8.136829578829e-01
 s           1
      1.220000000000e-01      1.000000000000e+00
 s           1
      2.974000000000e-02      1.000000000000e+00
 p           1
      7.270000000000e-01      1.000000000000e+00
 p           1
      1.410000000000e-01      1.000000000000e+00

18
 s           3
      1.301000000000e+01      3.349872639000e-02
      1.962000000000e+00      2.348008011741e-01
      4.446000000000e-01      8.136829578829e-01
 s           1
      1.220000000000e-01      1.000000000000e+00
 s           1
      2.974000000000e-02      1.000000000000e+00
 p           1
      7.270000000000e-01      1.000000000000e+00
 p           1
      1.410000000000e-01      1.000000000000e+00


[5D]
[7F]
[9G]
[MO]
 Ene=  -15.640151
 Spin=  Alpha
 Occup=    2.000000
   1     0.0000851713726117
   2     0.0001478928599040
   3    -0.0058505700636769
   4    -0.0042356897408538
   5    -0.0000086336027496
   6    -0.0000050327882215
   7    -0.0000024497560090
   8     0.0011773140191965
   9    -0.0069108293895890
  10     0.0002047269103655
  11     0.0028645871752499
  12     0.0031149066378687
  13     0.0008650940401863
  14     0.0000086860032223
  15     0.0000028597020249
  16    -0.0000021850671658
  17     0.0000233926658089
  18    -0.0000049993207681
  19     0.0001513985337496
  20     0.0001775831613689
  21     0.0004736736764823
  22     0.0007040673658119
  23     0.0017409382740228
  24    -0.0000215360214528
  25    -0.0000183805348897
  26    -0.0055577258521630
  27     0.0128401347764396
  28    -0.0000908993214150
  29     0.0000465981909823
  30    -0.0000268175907931
  31     0.0037838738253972
  32    -0.0096487982728279
  33     0.0009418667443506
  34    -0.0051579175850691
  35     0.0026030782590748
  36    -0.0014373517651691
  37    -0.0000046558975089
  38     0.0000326467905785
  39     0.0000029668331749
  40     0.0000948792426237
  41     0.0000119161314078
  42    -0.0007299166447025
  43    -0.0003883968912485
  44     0.0007078276618916
  45    -0.0026294747390903
  46     0.0022736482279829
  47    -0.0001888856930582
  48    -0.0002872236779496
  49     0.0002346072072499
  50    -0.0263375197382039
  51     0.0003168100272078
  52     0.0001815688268262
  53     0.0000906434000096
  54     0.0130526954059957
  55     0.0034336594306175
  56     0.0038042714455681
  57    -0.0024361079928731
  58     0.0045796351674201
  59    -0.0006422421908035
  60     0.0000608006322235
  61     0.0000198539379993
  62     0.0000454144279387
  63     0.0001569395146453
  64     0.0001760120964226
  65     0.0011100518541022
  66    -0.0003177975213760
  67    -0.0015534786310914
  68     0.0012069255755123
  69    -0.0052567482309261
  70    -1.0030833167775217
  71    -0.0054144804110584
  72     0.0277875078548776
  73     0.0217759847383782
  74     0.0000075455341869
  75    -0.0009107507126138
  76    -0.0000224937592269
  77    -0.0000427378182779
  78     0.0051469629805191
  79     0.0000803247057348
  80    -0.0000335517377045
  81     0.0026938562565712
  82     0.0000408426561104
  83     0.0001949317915513
  84    -0.0001207308475290
  85    -0.0000055412405234
  86    -0.0000522014984053
  87    -0.0000028122629708
  88    -0.0007401000395550
  89     0.0009912187145170
  90     0.0000032924843464
  91     0.0019291089666247
  92     0.0000269628970153
  93     0.0001175576309558
  94     0.0001454252974741
  95    -0.0001197036486211
  96     0.0042173961396359
  97     0.0000271914776832
  98    -0.0001115278148700
  99     0.0000040241377436
 100    -0.0000228346483622
 101     0.0028814062494588
 102     0.0000387450263756
 103    -0.0000184929153697
 104     0.0011310812934216
 105     0.0000115209414616
 106     0.0000448623399535
 107    -0.0000691626729668
 108    -0.0000024969528560
 109    -0.0001440796028005
 110    -0.0000032180150266
 111    -0.0007821557852412
 112    -0.0003038558742397
 113     0.0000332410864426
 114    -0.0023151354466447
 115    -0.0000327290489050
 116     0.0000025969318726
 117     0.0000227510755212
 118    -0.0013254687448496
 119     0.0085575860274868
 120    -0.0000268477288379
 121     0.0000419315535605
 122    -0.0000073301350234
 123    -0.0018713076778330
 124    -0.0005301385503065
 125    -0.0005305612322730
 126     0.0019210689611381
 127     0.0011566836944278
 128     0.0005593247019595
 129    -0.0000369010190372
 130     0.0000076267421840
 131    -0.0000120801719689
 132    -0.0000373121429874
 133    -0.0000478545511791
 134     0.0000666750047116
 135    -0.0002936312023425
 136    -0.0000017594352340
 137    -0.0008489236271808
 138    -0.0000580695474723
 139     0.0000028069024952
 140     0.0000020913228054
 141    -0.0013111814979036
 142     0.0086488051878368
 143    -0.0000065973620324
 144     0.0000286783932320
 145    -0.0000015921465711
 146     0.0018411937986880
 147    -0.0005022082261675
 148     0.0005289225107118
 149    -0.0020333369274291
 150     0.0011453268487825
 151    -0.0005806096866294
 152    -0.0000361065993693
 153     0.0000078737762853
 154     0.0000138807101453
 155    -0.0000401523226167
 156     0.0000440919379503
 157     0.0000587777058133
 158    -0.0003014564417213
 159     0.0000198316082146
 160    -0.0008333343864963
 161     0.0000315451353380
 162     0.0000845937090243
 163     0.0001513316435785
 164    -0.0056106859945834
 165    -0.0042853988404840
 166     0.0000140782896752
 167    -0.0000083341212488
 168     0.0000035372007222
 169    -0.0010185876712816
 170    -0.0067883728297176
 171    -0.0003956560310504
 172    -0.0029406151572309
 173     0.0031529906928023
 174    -0.0008013710899330
 175     0.0000082356760084
 176     0.0000019386114520
 177     0.0000006577636832
 178     0.0000211614636480
 179     0.0000055699135507
 180     0.0001287676078658
 181     0.0001323500709258
 182    -0.0005000841206428
 183     0.0007441285250380
 184    -0.0016911030192992
 185    -0.0000188528306618
 186    -0.0000122985003535
 187    -0.0058125556267534
 188     0.0129967133321474
 189     0.0000922140285426
 190     0.0000456548656274
 191     0.0000259905635928
 192    -0.0035912502266169
 193    -0.0095837173748810
 194    -0.0011957664541369
 195     0.0051295362596455
 196     0.0027704389253975
 197     0.0015168049807561
 198    -0.0000039570180103
 199     0.0000316114997777
 200    -0.0000045124229330
 201     0.0000957634075087
 202    -0.0000083453138296
 203    -0.0007572283449075
 204    -0.0004201487226316
 205    -0.0006060976162325
 206    -0.0024946879370534
 207    -0.0023535727589713
 208    -0.0001854216761305
 209    -0.0002808388709025
 210     0.0002991659581097
 211    -0.0264586992905533
 212    -0.0003180515077354
 213     0.0001759177201630
 214    -0.0000893668728815
 215    -0.0130843724320779
 216     0.0032575452924059
 217    -0.0036846051847011
 218     0.0024832112575858
 219     0.0046094528690295
 220     0.0007998078118493
 221     0.0000599019623091
 222     0.0000136530690270
 223    -0.0000519171654646
 224     0.0001606975672336
 225    -0.0001676634525439
 226     0.0011813180926949
 227    -0.0001919317855494
 228     0.0014532991709968
 229     0.0010576531910503
 230     0.0052973868615542
 231     0.0000038644310007
 232    -0.0011478269446301
 233    -0.0002455103062509
 234    -0.0000025939854853
 235     0.0000068666980487
 236    -0.0000008329676731
 237     0.0002277323652629
 238    -0.0004887321280390
 239     0.0000547799964558
 240    -0.0000112080699456
 241     0.0016419784096624
 242     0.0007879085978900
 243    -0.0000320391846169
 244    -0.0000071467748823
 245    -0.0000092214808263
 246    -0.0006641724037499
 247    -0.0007089061226213
 248    -0.0002008129317049
 249     0.0003186028512875
 250    -0.0001206863915016
 251    -0.0019843138079683
 252    -0.0000477723562572
 253    -0.0001636412486376
 254    -0.0000174238956346
 255     0.0011462915535054
 256     0.0004962435439157
 257     0.0003300024816798
 258    -0.0000296500170051
 259    -0.0021795280458471
 260     0.0010612085570875
 261    -0.0000018199157637
 262    -0.0000191665389414
 263    -0.0000006133945087
 264     0.0004918927127304
 265    -0.0004224543592902
 266     0.0001332329727386
 267    -0.0000268873479190
 268    -0.0021735937383233
 269     0.0010622659892707
 270     0.0000014739154659
 271    -0.0000200802209518
 272     0.0000002595772021
 273    -0.0004768671536195
 274    -0.0004307386433631
 275    -0.0001438588406369
 276    -0.0000000144108064
 277    -0.0011464064380884
 278    -0.0002464366886471
 279     0.0000022707510897
 280     0.0000069920618996
 281     0.0000005784271720
 282    -0.0002187465885335
 283    -0.0004914162695628
 284    -0.0000709343888989
 285    -0.0000098929361461
 286     0.0016067282742986
 287     0.0007757586761139
 288     0.0000331963400784
 289    -0.0000070083690688
 290     0.0000091291817806
 291     0.0006818192748060
 292    -0.0006817619529609
 293     0.0001818139668435
 294     0.0003169721830456
 295    -0.0000886227461823
 296    -0.0019720147790705
 297     0.0000511863390281
 298    -0.0001624572465614
 299     0.0000120728890422
 300    -0.0011557206387720
 301     0.0004771250562618
 302    -0.0003151035416396
 Ene=  -11.291228
 Spin=  Alpha
 Occup=    2.000000
   1     0.0000016775597704
   2     0.0000093253834634
   3    -0.0029034695580882
   4    -0.0086018635843234
   5     0.0000098533723135
   6    -0.0000167126207810
   7     0.0000019572701312
   8     0.0017446291703706
   9     0.0043689652262238
  10     0.0005652014488718
  11    -0.0003413327395331
  12    -0.0022467248706239
  13    -0.0001360247441565
  14    -0.0000171098787321
  15     0.0000168095583059
  16    -0.0000075218265393
  17     0.0000243447706784
  18    -0.0000289633219162
  19     0.0000661200423645
  20    -0.0003282190824999
  21    -0.0002703228352409
  22    -0.0008704825527793
  23    -0.0009732026778639
  24     0.0002373378757687
  25     0.0000701844038692
  26     0.0056778356915299
  27     0.0000472691882392
  28    -0.0001009869595114
  29     0.0000559324746382
  30    -0.0000278946396912
  31    -0.0039783336268266
  32     0.0034695139982098
  33    -0.0011065197649739
  34     0.0006557584860504
  35    -0.0045058561553163
  36     0.0001122790891000
  37    -0.0000251244041854
  38     0.0000206261079142
  39     0.0000014066110256
  40     0.0000183883205497
  41     0.0000059760599044
  42     0.0002307393134791
  43     0.0001542680298252
  44    -0.0002590315953241
  45     0.0009003329038066
  46    -0.0008089635561117
  47     0.0166037285773568
  48     0.0008047129844976
  49    -0.0008678620908460
  50     0.0067264560822187
  51    -0.0001589231057203
  52    -0.0000736217883332
  53    -0.0000463909854177
  54    -0.0065693525549663
  55     0.0028269117739824
  56    -0.0018263547100008
  57     0.0042583307586914
  58    -0.0001695458486858
  59     0.0012274961820100
  60     0.0001267229944935
  61    -0.0000643820144999
  62     0.0000021626643072
  63     0.0000094802237719
  64     0.0000223134031284
  65     0.0003687117219124
  66    -0.0003333826607960
  67     0.0008790602949724
  68    -0.0006635765998166
  69     0.0030818226405986
  70    -0.0002100547784586
  71    -0.0007538099225389
  72     0.0037142248354265
  73    -0.0010370088882126
  74     0.0003768946896846
  75    -0.0001946696916200
  76     0.0001082293345228
  77    -0.0049493932138928
  78     0.0019040161224442
  79    -0.0013658596623760
  80    -0.0075385378583516
  81     0.0080595528608441
  82    -0.0020410980994602
  83    -0.0001321284190711
  84     0.0000750131864647
  85    -0.0000032593947766
  86     0.0000186162696563
  87    -0.0000260788774897
  88    -0.0003537387896669
  89     0.0003383751444939
  90    -0.0007433542702330
  91     0.0006377905585470
  92    -0.0026237835567100
  93     0.0003435509350269
  94     0.0005664934646330
  95     0.0020808849963110
  96    -0.0048624853875156
  97    -0.0000492527218443