
Running Job 1 of 1 qchem.inp
qchem qchem.inp_2570605.0 /scratch/483103/qchem2570605/ 1
/local/qchem-6.3/exe/qcprog.exe_s qchem.inp_2570605.0 /scratch/483103/qchem2570605/
                  Welcome to Q-Chem
     A Quantum Leap Into The Future Of Chemistry


 Q-Chem 6.3, Q-Chem, Inc., Pleasanton, CA (2025)

 License issued to: MRG Dr. Merle Roehr, University of Wuerzburg

 E. Epifanovsky,  A. T. B. Gilbert,  Xintian Feng,  Joonho Lee,  Yuezhi Mao,  
 N. Mardirossian,  P. Pokhilko,  A. White,  M. Wormit,  M. P. Coons,  
 A. L. Dempwolff,  Zhengting Gan,  D. Hait,  P. R. Horn,  L. D. Jacobson,  
 I. Kaliman,  J. Kussmann,  A. W. Lange,  Ka Un Lao,  D. S. Levine,  Jie Liu,  
 S. C. McKenzie,  A. F. Morrison,  K. D. Nanda,  F. Plasser,  D. R. Rehn,  
 M. L. Vidal,  Zhi-Qiang You,  Ying Zhu,  Huseyin Aksu,  B. Alam,  
 B. Albrecht,  A. Aldossary,  E. Alguire,  J. H. Andersen,  
 J. E. Arias-Martinez,  V. Athavale,  F. Ballesteros,  D. Barton,  K. Begam,  
 A. Behn,  N. Bellonzi,  Y. A. Bernard,  E. J. Berquist,  H. Burton,  
 S. Camps,  A. Carreras,  K. Carter-Fenk,  Mathew Chow,  Romit Chakraborty,  
 Chandrima Chakravarty,  Junhan Chen,  A. D. Chien,  K. D. Closser,  
 V. Cofer-Shabica,  L. Cunha,  S. Dasgupta,  Jia Deng,  Joseph Dickinson,  
 M. de Wergifosse,  M. Diedenhofen,  L. B. Dittmer,  Hainam Do,  Wenjie Dou,  
 S. Ehlert,  Po-Tung Fang,  S. Fatehi,  Qingguo Feng,  Jonathan Fetherolf,  
 T. Friedhoff,  Thomas Froitzheim,  Sarai Folkestad,  B. Ganoe,  J. Gayvert,  
 Qinghui Ge,  G. Gidofalvi,  M. Gimferrer,  G. Giudetti,  M. Goldey,  
 Montgomery Gray,  J. Gomes,  C. Gonzalez-Espinoza,  S. Gulania,  A. Gunina,  
 J. A. Gyamfi,  M. W. D. Hanson-Heine,  P. H. P. Harbach,  A. W. Hauser,  
 M. F. Herbst,  M. Hernandez Vera,  M. Hodecker,  Z. C. Holden,  S. Houck,  
 Xunkun Huang,  Kerwin Hui,  B. C. Huynh,  K. Ikeda,  M. Ivanov,  
 Nayanthara K. Jayadev,  Hyunjun Ji,  Zuxin Jin,  Hanjie Jiang,  
 Subrata Jana,  B. Kaduk,  S. Kaehler,  R. Kang,  Richard Kang,  
 K. Khistyaev,  Jaehoon Kim,  Yongbin Kim,  P. Klunzinger,  Z. Koczor-Benda,  
 Joong Hoon Koh,  D. Kosenkov,  Saikiran Kotaru,  L. Koulias,  T. Kowalczyk,  
 C. M. Krauter,  K. Kue,  A. Kunitsa,  T. Kus,  A. Landau,  C. W. Lander,  
 K. V. Lawler,  D. Lefrancois,  S. Lehtola,  Rain Li,  Shaozhi Li,  
 Tao E. Li,  Yi-Pei Li,  Jiashu Liang,  M. Liebenthal,  Hung-Hsuan Lin,  
 You-Sheng Lin,  Fenglai Liu,  Kuan-Yu Liu,  Xiao Liu,  M. Loipersberger,  
 A. Luenser,  C. Malbon,  Aniket Mandal,  Manisha,  A. Manjanath,  
 P. Manohar,  E. Mansoor,  S. F. Manzer,  Shan-Ping Mao,  A. V. Marenich,  
 T. Markovich,  S. Mason,  F. Matz,  S. A. Maurer,  Samuel May,  
 Alexandra McIsaac,  P. F. McLaughlin,  M. F. S. J. Menger,  J.-M. Mewes,  
 S. A. Mewes,  R. E. Moorby,  P. Morgante,  Mohammad Mostafanejad,  
 Madhubani Mukherjee,  J. W. Mullinax,  Quyen Nguyen,  Avik Kumar Ojha,  
 K. J. Oosterbaan,  Eno Paenurk,  Xiaoliang Pan,  G. Paran,  V. Parravicini,  
 R. L. Patterson,  Alexander C. Paul,  Suranjan K. Paul,  F. Pavosevic,  
 Zheng Pei,  P. Pokhilko,  S. Prager,  E. I. Proynov,  E. Ramos,  B. Rana,  
 A. E. Rask,  A. Rettig,  R. M. Richard,  F. Rob,  E. Rossomme,  S. Roy,  
 T. Scheele,  M. Scheurer,  M. Schneider,  P. E. Schneider,  Tim K. Schramm,  
 N. Sergueev,  S. M. Sharada,  Hengyuan Shen,  W. Skomorowski,  D. W. Small,  
 C. J. Stein,  Alistair J. Sterling,  Yingli Su,  Yu-Chuan Su,  
 E. J. Sundstrom,  J. Talbot,  J. A. Tan,  Zhen Tao,  Hung-Hsuan Teh,  
 J. Thirman,  C. Titeca,  N. Tkachenko,  Hung-Yi Tsai,  T. Tsuchimochi,  
 N. M. Tubman,  C. Utku,  S. P. Veccham,  O. Vydrov,  Z. Wang,  Rahel Weiss,  
 J. Wenzel,  Jonathan Wong,  J. Witte,  H. Wu,  Yanze Wu,  A. Yamada,  
 Chou-Hsun Yang,  Kun Yao,  S. Yeganeh,  S. R. Yost,  Qi Yu,  A. Zech,  
 F. Zeller,  Chongxiao Zhao,  T. Zhao,  Igor Ying Zhang,  Xing Zhang,  
 Yu Zhang,  D. Zuev,  A. Aspuru-Guzik,  A. T. Bell,  N. A. Besley,  
 K. B. Bravaya,  B. R. Brooks,  D. Casanova,  Jeng-Da Chai,  Hsing-Ta Chen,  
 S. Coriani,  C. J. Cramer,  A. E. DePrince, III,  R. A. DiStasio Jr.,  
 A. Dreuw,  B. D. Dunietz,  T. R. Furlani,  W. A. Goddard III,  S. Grimme,  
 S. Hammes-Schiffer,  T. Head-Gordon,  W. J. Hehre,  Chao-Ping Hsu,  
 T.-C. Jagau,  Yousung Jung,  A. Klamt,  Jing Kong,  D. S. Lambrecht,  
 Xiangyuan Li,  WanZhen Liang,  N. J. Mayhall,  C. W. McCurdy,  J. B. Neaton,  
 T. Neudecker,  C. Ochsenfeld,  J. A. Parkhill,  R. Peverati,  
 V. A. Rassolov,  Haisheng Ren,  Yihan Shao,  L. V. Slipchenko,  
 R. P. Steele,  J. E. Subotnik,  A. J. W. Thom,  A. Tkatchenko,  
 D. G. Truhlar,  T. Van Voorhis,  Fan Wang,  T. A. Wesolowski,  K. B. Whaley,  
 H. L. Woodcock III,  P. M. Zimmerman,  S. Faraji,  P. M. W. Gill,  
 M. Head-Gordon,  J. M. Herbert,  A. I. Krylov

 Contributors to earlier versions of Q-Chem not listed above: 
 R. D. Adamson,  B. Austin,  R. Baer,  J. Baker,  G. J. O. Beran,  
 K. Brandhorst,  S. T. Brown,  E. F. C. Byrd,  Arup K. Chakraborty,  
 G. K. L. Chan,  Chun-Min Chang,  Yunqing Chen,  C.-L. Cheng,  
 Siu Hung Chien,  D. M. Chipman,  D. L. Crittenden,  H. Dachsel,  
 R. J. Doerksen,  A. D. Dutoi,  R. G. Edgar,  J. Fosso-Tande,  
 L. Fusti-Molnar,  D. Ghosh,  A. Ghysels,  A. Golubeva-Zadorozhnaya,  
 J. Gonthier,  M. S. Gordon,  S. R. Gwaltney,  G. Hawkins,  J. E. Herr,  
 A. Heyden,  S. Hirata,  E. G. Hohenstein,  G. Kedziora,  F. J. Keil,  
 C. Kelley,  Jihan Kim,  R. A. King,  R. Z. Khaliullin,  P. P. Korambath,  
 W. Kurlancheek,  A. Laurent,  A. M. Lee,  M. S. Lee,  S. V. Levchenko,  
 Ching Yeh Lin,  D. Liotard,  E. Livshits,  R. C. Lochan,  I. Lotan,  
 L. A. Martinez-Martinez,  P. E. Maslen,  N. Nair,  D. P. O'Neill,  
 D. Neuhauser,  E. Neuscamman,  C. M. Oana,  R. Olivares-Amaya,  R. Olson,  
 T. M. Perrine,  B. Peters,  P. A. Pieniazek,  A. Prociuk,  Y. M. Rhee,  
 J. Ritchie,  M. A. Rohrdanz,  E. Rosta,  N. J. Russ,  H. F. Schaefer III,  
 M. W. Schmidt,  N. E. Schultz,  S. Sharma,  N. Shenvi,  C. D. Sherrill,  
 A. C. Simmonett,  A. Sodt,  T. Stein,  D. Stuck,  K. S. Thanthiriwatte,  
 V. Vanovschi,  L. Vogt,  Tao Wang,  A. Warshel,  M. A. Watson,  
 C. F. Williams,  Q. Wu,  X. Xu,  Jun Yang,  W. Zhang,  Yan Zhao

   Please cite Q-Chem as follows:
  "Software for the frontiers of quantum chemistry:
   An overview of developments in the Q-Chem 5 package"
   J. Chem. Phys. 155, 084801 (2021)
   https://doi.org/10.1063/5.0055522 (open access)

 Q-Chem 6.3.1 for Intel X86 EM64T Linux

 Parts of Q-Chem use Armadillo 12.8.2 (Cortisol Injector).
 http://arma.sourceforge.net/

 Q-Chem begins on Wed Jun 17 18:29:18 2026  

 Host: 
0

 Scratch files written to /scratch/483103/qchem2570605//
 Executable: /local/qchem-6.3/exe/qcprog.exe_s
 Number of threads = 8
 Sep2225 |scratch|qcdevops|jenkins|workspace|build_RNUM -1
 Processing $rem in /local/qchem-6.3/config/preferences:
 Processing $rem in /home/buehlerm/.qchemrc:

 Checking the input file for inconsistencies... 	...done.

--------------------------------------------------------------
User input:
--------------------------------------------------------------
$molecule
0 1
C 2.362783 -0.699893 -0.001711
C 2.362782 0.699393 -0.001535
C 1.169687 1.437826 0.000000
C 0.000000 0.696697 0.000000
C -0.000000 -0.696697 0.000000
C 1.169308 -1.438346 -0.000543
C -1.525271 -0.791817 0.022076
C -2.169164 -0.670736 1.397646
C -2.168976 0.669496 1.397885
C -1.525381 0.790814 0.022518
H 3.318117 -1.227035 -0.005815
H 3.318499 1.225847 -0.005501
H 1.184993 2.528198 -0.008612
H 1.185195 -2.528689 -0.009278
H -2.032556 -1.367669 -0.759241
H -2.449638 -1.420810 2.136861
H -2.450387 1.419471 2.136825
H -2.032906 1.366877 -0.758597
$end

$rem
METHOD     wB97xD
BASIS      aug-cc-pvdz
NBO        1        ! NBO5 Aufruf
MAKE_CUBE_FILES TRUE
PLOTS TRUE
$end

$nbo
PLOT
$end

$plots
grid_range (-6,6) (-6,6) (-4,4)
grid_spacing 0.12
nbo_state 0
natural_bond_orbital 8
$end
--------------------------------------------------------------
 ----------------------------------------------------------------
             Standard Nuclear Orientation (Angstroms)
    I     Atom           X                Y                Z
 ----------------------------------------------------------------
    1      C       2.3965945122    -0.6997448503     0.2391994974
    2      C       2.3966917342     0.6995411564     0.2391458821
    3      C       1.2323483005     1.4380461291    -0.0210004314
    4      C       0.0910354353     0.6969874472    -0.2772753741
    5      C       0.0908992344    -0.6964065281    -0.2770512062
    6      C       1.2318164040    -1.4381258940    -0.0211505863
    7      C      -1.4021257818    -0.7914309105    -0.5898346061
    8      C      -2.3318710799    -0.6700658193     0.6111216063
    9      C      -2.3316090362     0.6701661882     0.6111803880
   10      C      -1.4021752942     0.7912001469    -0.5896820796
   11      H       3.3295430261    -1.2269449942     0.4446883321
   12      H       3.3300866706     1.2259369954     0.4446838123
   13      H       1.2492763839     2.5284156535    -0.0262233477
   14      H       1.2491251595    -2.5284713879    -0.0260153253
   15      H      -1.7258661257    -1.3673917908    -1.4632538100
   16      H      -2.7676324701    -1.4199910774     1.2710000834
   17      H      -2.7680777329     1.4202899109     1.2703438371
   18      H      -1.7260814827     1.3671542967    -1.4631421229
 ----------------------------------------------------------------
 Molecular Point Group                 C1    NOp =  1
 Largest Abelian Subgroup              C1    NOp =  1
 Nuclear Repulsion Energy =         463.56205882 hartrees
 There are       34 alpha and       34 beta electrons
 Requested basis set is aug-cc-pVDZ
 There are 130 shells and 302 basis functions

 Total QAlloc Memory Limit   7000 MB
 Mega-Array Size       188 MB
 MEM_STATIC part       192 MB

 A cutoff of  1.0D-09 yielded   8171 shell pairs
 There are     44379 function pairs (     50547 Cartesian)
 Smallest overlap matrix eigenvalue = 1.98E-06

 Q-Chem warning in module stvman/mkSTV.C, line 305:

 Overlap eigenvalue is smaller than square root of threshold
 Use THRESH >= 12 to get rid of this warning


 Scale SEOQF with 1.000000e-01/1.000000e-01/1.000000e-01

 Standard Electronic Orientation quadrupole field applied
 Nucleus-field energy     =     0.0000000112 hartrees
 Guess from superposition of atomic densities
 Warning:  Energy on first SCF cycle will be non-variational
 SAD guess density has 68.000000 electrons

 -----------------------------------------------------------------------
  General SCF calculation program by
  Eric Jon Sundstrom, Paul Horn, Yuezhi Mao, Dmitri Zuev, Alec White,
  David Stuck, Shaama M.S., Shane Yost, Joonho Lee, David Small,
  Daniel Levine, Susi Lehtola, Hugh Burton, Evgeny Epifanovsky,
  Bang C. Huynh
 -----------------------------------------------------------------------
 Exchange:     0.2220 Hartree-Fock + 1.0000 wB97X-D + LR-HF
 Correlation:  1.0000 wB97X-D
 Using SG-2 standard quadrature grid
 Dispersion:   Grimme D
 using 8 threads for integral computing
 -------------------------------------------------------
 OpenMP Integral computing Module                
 Release: version 1.0, May 2013, Q-Chem Inc. Pittsburgh 
 -------------------------------------------------------
 A restricted SCF calculation will be
 performed using DIIS
 SCF converges when DIIS error is below 1.0e-05
 User-specified cutoff of 10e-9
 used for neglect of 2-electron integrals.
 A cutoff of 10e-9
 used for neglect of overlap integrals.
 Incremental Fock algorithm is on at the start.
 ---------------------------------------
  Cycle       Energy         DIIS error
 ---------------------------------------
    1    -389.1871141461      3.64e-02  
    2    -385.6018921316      2.39e-03  
    3    -385.6443735862      1.72e-03  
    4    -385.6794737763      2.56e-04  
    5    -385.6800370026      1.62e-04  
    6    -385.6803442480      2.86e-05  
    7    -385.6803551411      7.33e-06  Convergence criterion met
 ---------------------------------------
 SCF time:   CPU 452.93s  wall 58.00s 
 SCF   energy =  -385.68035514
 Total energy =  -385.68035514
 Integrated density by DFT XC:
   Number of electrons = 68
   Numerical integral  =    67.997993363318
   Relative error      =     0.0029509363 %
 
 --------------------------------------------------------------
 
                    Orbital Energies (a.u.)
 --------------------------------------------------------------
 
 Alpha MOs
 -- Occupied --
-10.3152 -10.3151 -10.3065 -10.3057 -10.3032 -10.3032 -10.3016 -10.3011
-10.3003 -10.2997  -1.0130  -0.9426  -0.8572  -0.8498  -0.7592  -0.7533
 -0.6827  -0.6701  -0.6057  -0.6041  -0.5987  -0.5461  -0.5326  -0.5098
 -0.4888  -0.4840  -0.4433  -0.4312  -0.4260  -0.4029  -0.3805  -0.3385
 -0.3285  -0.3126
 -- Virtual --
  0.0367   0.0393   0.0422   0.0477   0.0498   0.0533   0.0560   0.0614
  0.0653   0.0752   0.0839   0.0963   0.1094   0.1185   0.1206   0.1302
  0.1334   0.1372   0.1378   0.1411   0.1461   0.1498   0.1538   0.1557
  0.1562   0.1664   0.1676   0.1711   0.1754   0.1780   0.1850   0.1855
  0.1908   0.2060   0.2103   0.2136   0.2159   0.2227   0.2249   0.2420
  0.2483   0.2543   0.2599   0.2675   0.2712   0.2736   0.2811   0.2894
  0.2974   0.2989   0.3018   0.3087   0.3144   0.3169   0.3204   0.3258
  0.3261   0.3466   0.3512   0.3539   0.3571   0.3677   0.3734   0.3841
  0.3888   0.3925   0.3931   0.4068   0.4099   0.4191   0.4302   0.4449
  0.4522   0.4545   0.4611   0.4707   0.4801   0.4820   0.4957   0.5101
  0.5151   0.5233   0.5353   0.5393   0.5442   0.5452   0.5518   0.5552
  0.5622   0.5732   0.5774   0.5893   0.5921   0.5978   0.6050   0.6121
  0.6276   0.6310   0.6388   0.6465   0.6502   0.6522   0.6545   0.6709
  0.6802   0.6810   0.6901   0.6938   0.6984   0.7113   0.7128   0.7163
  0.7170   0.7298   0.7380   0.7404   0.7409   0.7531   0.7668   0.7704
  0.7816   0.7920   0.7926   0.8101   0.8219   0.8282   0.8324   0.8507
  0.8513   0.8574   0.8648   0.8705   0.8713   0.8868   0.9032   0.9055
  0.9266   0.9305   0.9556   0.9643   0.9762   0.9823   1.0002   1.0256
  1.0285   1.0402   1.0473   1.0496   1.0550   1.0626   1.1078   1.1156
  1.1223   1.1522   1.1941   1.2081   1.2240   1.2691   1.2786   1.3092
  1.3190   1.3246   1.3275   1.3577   1.3597   1.3696   1.3778   1.4143
  1.4147   1.4184   1.4522   1.4544   1.4623   1.4633   1.4739   1.4932
  1.5027   1.5067   1.5179   1.5399   1.5555   1.5563   1.5771   1.5812
  1.5975   1.6170   1.6229   1.6333   1.6449   1.6544   1.6723   1.6855
  1.7090   1.7173   1.7251   1.7374   1.7455   1.7497   1.7772   1.7817
  1.8037   1.8375   1.8469   1.8560   1.8694   1.8722   1.8940   1.9017
  1.9052   1.9585   1.9587   1.9670   1.9763   1.9873   1.9977   2.0011
  2.0209   2.0220   2.0352   2.0825   2.0847   2.1069   2.1123   2.1425
  2.1440   2.1494   2.1706   2.1963   2.2034   2.2088   2.2217   2.2564
  2.2842   2.2958   2.3246   2.3662   2.3726   2.4217   2.4387   2.4502
  2.4801   2.4982   2.5009   2.5352   2.5724   2.5920   2.6375   2.6390
  2.6467   2.6891   2.7133   2.7351   2.7543   2.8210   2.8694   2.9266
  2.9702   2.9967   3.0667   3.0979   3.1767   3.2862   3.4638   3.5641
  3.6437   3.9460   4.4077   4.7149
 --------------------------------------------------------------
 
          Ground-State Mulliken Net Atomic Charges

     Atom                 Charge (a.u.)
  ----------------------------------------
      1 C                     0.263358
      2 C                     0.261194
      3 C                     1.446725
      4 C                    -0.724755
      5 C                    -0.719219
      6 C                     1.442922
      7 C                     0.845364
      8 C                     0.362899
      9 C                     0.361238
     10 C                     0.847039
     11 H                    -0.638177
     12 H                    -0.637732
     13 H                    -0.609826
     14 H                    -0.609631
     15 H                    -0.532825
     16 H                    -0.413447
     17 H                    -0.413038
     18 H                    -0.532090
  ----------------------------------------
  Sum of atomic charges =     0.000000

 -----------------------------------------------------------------
                    Cartesian Multipole Moments
 -----------------------------------------------------------------
    Charge (ESU x 10^10)
                -0.0000
    Dipole Moment (Debye)
         X      -0.3015      Y      -0.0003      Z       0.0015
       Tot       0.3015
    Quadrupole Moments (Debye-Ang)
        XX     -55.6335     XY      -0.0035     YY     -52.6573
        XZ       0.6623     YZ      -0.0002     ZZ     -60.1145
    Octopole Moments (Debye-Ang^2)
       XXX      16.7878    XXY       0.0013    XYY       0.5321
       YYY      -0.0053    XXZ       8.4328    XYZ      -0.0034
       YYZ       1.2017    XZZ      -9.5720    YZZ      -0.0031
       ZZZ      -2.5152
    Hexadecapole Moments (Debye-Ang^3)
      XXXX   -1176.4819   XXXY      -0.0408   XXYY    -242.1704
      XYYY      -0.0283   YYYY    -388.9166   XXXZ       3.5332
      XXYZ       0.0029   XYYZ      -1.5565   YYYZ      -0.0030
      XXZZ    -223.9115   XYZZ       0.0069   YYZZ     -95.5093
      XZZZ       0.2952   YZZZ      -0.0006   ZZZZ    -159.3967
 -----------------------------------------------------------------

 Begin NBO analysis for the ground state 

 This is the NBO5 program in Q-Chem
 (Use NBO_EXTERNAL to run external NBO6 or NBO7)

 *********************************** NBO 5.0 ***********************************
             N A T U R A L   A T O M I C   O R B I T A L   A N D
          N A T U R A L   B O N D   O R B I T A L   A N A L Y S I S
 *******************************************************************************
  (c) Copyright 1996-2002 Board of Regents of the University of Wisconsin System
      on behalf of the Theoretical Chemistry Institute.  All Rights Reserved.

          Cite this program as:

          NBO 5.0.  E. D. Glendening, J. K. Badenhoop, A. E. Reed,
          J. E. Carpenter, J. A. Bohmann, C. M. Morales, and F. Weinhold
          (Theoretical Chemistry Institute, University of Wisconsin,
          Madison, WI, 2001); http://www.chem.wisc.edu/~nbo5

       /PLOT   / : Write information for the orbital plotter
  This is a closed-shell NBO calculation

 Job title: Starting NBO analysis.                                          

 Storage needed:      457312 in NPA,      366069 in NBO,
                      366650 in NLMO (    23999918 available)


 NATURAL POPULATIONS:  Natural atomic orbital occupancies 
                                                          
  NAO Atom No lang   Type(AO)    Occupancy      Energy    
 ---------------------------------------------------------
   1    C  1  s      Cor( 1s)     1.99903     -10.15868
   2    C  1  s      Val( 2s)     0.96296      -0.16011
   3    C  1  s      Ryd( 4s)     0.00099       1.63990
   4    C  1  s      Ryd( 3s)     0.00005       0.81903
   5    C  1  px     Val( 2p)     1.14559      -0.05389
   6    C  1  px     Ryd( 4p)     0.00521       1.11325
   7    C  1  px     Ryd( 3p)     0.00008       0.49264
   8    C  1  py     Val( 2p)     1.09059      -0.03998
   9    C  1  py     Ryd( 4p)     0.00455       1.00378
  10    C  1  py     Ryd( 3p)     0.00009       0.41721
  11    C  1  pz     Val( 2p)     1.01500      -0.10057
  12    C  1  pz     Ryd( 4p)     0.00114       0.76876
  13    C  1  pz     Ryd( 3p)     0.00013       0.32034
  14    C  1  dxy    Ryd( 4d)     0.00060       2.18530
  15    C  1  dxy    Ryd( 3d)     0.00066       1.54805
  16    C  1  dxz    Ryd( 4d)     0.00057       1.44700
  17    C  1  dxz    Ryd( 3d)     0.00018       1.28725
  18    C  1  dyz    Ryd( 4d)     0.00038       1.41844
  19    C  1  dyz    Ryd( 3d)     0.00024       1.22999
  20    C  1  dx2y2  Ryd( 4d)     0.00108       2.11306
  21    C  1  dx2y2  Ryd( 3d)     0.00050       1.55198
  22    C  1  dz2    Ryd( 4d)     0.00163       1.74956
  23    C  1  dz2    Ryd( 3d)     0.00035       1.19412
 
  24    C  2  s      Cor( 1s)     1.99903     -10.15862
  25    C  2  s      Val( 2s)     0.96284      -0.15997
  26    C  2  s      Ryd( 4s)     0.00100       1.64022
  27    C  2  s      Ryd( 3s)     0.00005       0.81881
  28    C  2  px     Val( 2p)     1.14576      -0.05389
  29    C  2  px     Ryd( 4p)     0.00521       1.11360
  30    C  2  px     Ryd( 3p)     0.00008       0.49270
  31    C  2  py     Val( 2p)     1.09060      -0.03999
  32    C  2  py     Ryd( 4p)     0.00455       1.00351
  33    C  2  py     Ryd( 3p)     0.00009       0.41702
  34    C  2  pz     Val( 2p)     1.01506      -0.10056
  35    C  2  pz     Ryd( 4p)     0.00114       0.76880
  36    C  2  pz     Ryd( 3p)     0.00013       0.32034
  37    C  2  dxy    Ryd( 4d)     0.00060       2.18510
  38    C  2  dxy    Ryd( 3d)     0.00066       1.54815
  39    C  2  dxz    Ryd( 4d)     0.00057       1.44714
  40    C  2  dxz    Ryd( 3d)     0.00018       1.28745
  41    C  2  dyz    Ryd( 4d)     0.00038       1.41842
  42    C  2  dyz    Ryd( 3d)     0.00024       1.22980
  43    C  2  dx2y2  Ryd( 4d)     0.00108       2.11339
  44    C  2  dx2y2  Ryd( 3d)     0.00050       1.55193
  45    C  2  dz2    Ryd( 4d)     0.00163       1.74962
  46    C  2  dz2    Ryd( 3d)     0.00035       1.19410
 
  47    C  3  s      Cor( 1s)     1.99884     -10.15365
  48    C  3  s      Val( 2s)     0.95187      -0.13775
  49    C  3  s      Ryd( 4s)     0.00132       1.79648
  50    C  3  s      Ryd( 3s)     0.00007       0.81748
  51    C  3  px     Val( 2p)     1.05948      -0.03344
  52    C  3  px     Ryd( 4p)     0.00364       0.97308
  53    C  3  px     Ryd( 3p)     0.00010       0.39660
  54    C  3  py     Val( 2p)     1.19755      -0.06170
  55    C  3  py     Ryd( 4p)     0.00576       1.24427
  56    C  3  py     Ryd( 3p)     0.00006       0.53663
  57    C  3  pz     Val( 2p)     0.99705      -0.09574
  58    C  3  pz     Ryd( 4p)     0.00104       0.79686
  59    C  3  pz     Ryd( 3p)     0.00013       0.32215
  60    C  3  dxy    Ryd( 4d)     0.00146       2.06621
  61    C  3  dxy    Ryd( 3d)     0.00045       1.55305
  62    C  3  dxz    Ryd( 4d)     0.00053       1.45413
  63    C  3  dxz    Ryd( 3d)     0.00045       1.23102
  64    C  3  dyz    Ryd( 4d)     0.00044       1.37286
  65    C  3  dyz    Ryd( 3d)     0.00016       1.36597
  66    C  3  dx2y2  Ryd( 4d)     0.00021       2.20884
  67    C  3  dx2y2  Ryd( 3d)     0.00119       1.60633
  68    C  3  dz2    Ryd( 4d)     0.00164       1.80266
  69    C  3  dz2    Ryd( 3d)     0.00046       1.21962
 
  70    C  4  s      Cor( 1s)     1.99876     -10.14681
  71    C  4  s      Val( 2s)     0.88014      -0.10279
  72    C  4  s      Ryd( 4s)     0.00183       2.10634
  73    C  4  s      Ryd( 3s)     0.00015       0.80454
  74    C  4  px     Val( 2p)     1.06556      -0.03705
  75    C  4  px     Ryd( 4p)     0.00511       1.25878
  76    C  4  px     Ryd( 3p)     0.00012       0.44076
  77    C  4  py     Val( 2p)     1.07327      -0.04250
  78    C  4  py     Ryd( 4p)     0.00567       1.04866
  79    C  4  py     Ryd( 3p)     0.00014       0.40160
  80    C  4  pz     Val( 2p)     0.99367      -0.08711
  81    C  4  pz     Ryd( 4p)     0.00256       0.84981
  82    C  4  pz     Ryd( 3p)     0.00022       0.39638
  83    C  4  dxy    Ryd( 3d)     0.00047       1.67005
  84    C  4  dxy    Ryd( 4d)     0.00136       2.18116
  85    C  4  dxz    Ryd( 3d)     0.00097       1.22036
  86    C  4  dxz    Ryd( 4d)     0.00090       1.94287
  87    C  4  dyz    Ryd( 3d)     0.00041       1.02457
  88    C  4  dyz    Ryd( 4d)     0.00087       1.81439
  89    C  4  dx2y2  Ryd( 3d)     0.00096       1.60424
  90    C  4  dx2y2  Ryd( 4d)     0.00098       2.24532
  91    C  4  dz2    Ryd( 3d)     0.00254       1.12312
  92    C  4  dz2    Ryd( 4d)     0.00032       1.97962
 
  93    C  5  s      Cor( 1s)     1.99876     -10.14679
  94    C  5  s      Val( 2s)     0.88016      -0.10276
  95    C  5  s      Ryd( 4s)     0.00183       2.10636
  96    C  5  s      Ryd( 3s)     0.00015       0.80453
  97    C  5  px     Val( 2p)     1.06548      -0.03707
  98    C  5  px     Ryd( 4p)     0.00512       1.25859
  99    C  5  px     Ryd( 3p)     0.00012       0.44078
 100    C  5  py     Val( 2p)     1.07331      -0.04249
 101    C  5  py     Ryd( 4p)     0.00566       1.04882
 102    C  5  py     Ryd( 3p)     0.00014       0.40175
 103    C  5  pz     Val( 2p)     0.99370      -0.08713
 104    C  5  pz     Ryd( 4p)     0.00256       0.84976
 105    C  5  pz     Ryd( 3p)     0.00022       0.39640
 106    C  5  dxy    Ryd( 3d)     0.00047       1.66967
 107    C  5  dxy    Ryd( 4d)     0.00136       2.18207
 108    C  5  dxz    Ryd( 3d)     0.00097       1.21989
 109    C  5  dxz    Ryd( 4d)     0.00090       1.94286
 110    C  5  dyz    Ryd( 3d)     0.00041       1.02452
 111    C  5  dyz    Ryd( 4d)     0.00087       1.81465
 112    C  5  dx2y2  Ryd( 3d)     0.00096       1.60331
 113    C  5  dx2y2  Ryd( 4d)     0.00098       2.24693
 114    C  5  dz2    Ryd( 3d)     0.00253       1.12041
 115    C  5  dz2    Ryd( 4d)     0.00033       1.98216
 
 116    C  6  s      Cor( 1s)     1.99884     -10.15367
 117    C  6  s      Val( 2s)     0.95196      -0.13786
 118    C  6  s      Ryd( 4s)     0.00132       1.79647
 119    C  6  s      Ryd( 3s)     0.00007       0.81752
 120    C  6  px     Val( 2p)     1.05944      -0.03345
 121    C  6  px     Ryd( 4p)     0.00364       0.97298
 122    C  6  px     Ryd( 3p)     0.00010       0.39664
 123    C  6  py     Val( 2p)     1.19753      -0.06168
 124    C  6  py     Ryd( 4p)     0.00576       1.24434
 125    C  6  py     Ryd( 3p)     0.00006       0.53676
 126    C  6  pz     Val( 2p)     0.99701      -0.09574
 127    C  6  pz     Ryd( 4p)     0.00104       0.79686
 128    C  6  pz     Ryd( 3p)     0.00013       0.32208
 129    C  6  dxy    Ryd( 4d)     0.00146       2.06590
 130    C  6  dxy    Ryd( 3d)     0.00045       1.55326
 131    C  6  dxz    Ryd( 4d)     0.00053       1.45326
 132    C  6  dxz    Ryd( 3d)     0.00045       1.23155
 133    C  6  dyz    Ryd( 4d)     0.00044       1.37234
 134    C  6  dyz    Ryd( 3d)     0.00016       1.36657
 135    C  6  dx2y2  Ryd( 4d)     0.00021       2.20841
 136    C  6  dx2y2  Ryd( 3d)     0.00119       1.60686
 137    C  6  dz2    Ryd( 4d)     0.00164       1.80209
 138    C  6  dz2    Ryd( 3d)     0.00046       1.22023
 
 139    C  7  s      Cor( 1s)     1.99907     -10.17897
 140    C  7  s      Val( 2s)     0.99041      -0.21358
 141    C  7  s      Ryd( 4s)     0.00085       2.13260
 142    C  7  s      Ryd( 3s)     0.00013       0.74491
 143    C  7  px     Val( 2p)     1.03337      -0.06574
 144    C  7  px     Ryd( 4p)     0.00235       1.00240
 145    C  7  px     Ryd( 3p)     0.00019       0.48351
 146    C  7  py     Val( 2p)     1.05201      -0.08833
 147    C  7  py     Ryd( 4p)     0.00653       1.08717
 148    C  7  py     Ryd( 3p)     0.00011       0.62944
 149    C  7  pz     Val( 2p)     1.15057      -0.09861
 150    C  7  pz     Ryd( 4p)     0.00284       1.11163
 151    C  7  pz     Ryd( 3p)     0.00014       0.57692
 152    C  7  dxy    Ryd( 3d)     0.00172       1.05485
 153    C  7  dxy    Ryd( 4d)     0.00117       1.85175
 154    C  7  dxz    Ryd( 3d)     0.00205       1.32592
 155    C  7  dxz    Ryd( 4d)     0.00088       1.90741
 156    C  7  dyz    Ryd( 3d)     0.00162       1.22634
 157    C  7  dyz    Ryd( 4d)     0.00107       1.89054
 158    C  7  dx2y2  Ryd( 3d)     0.00254       1.09330
 159    C  7  dx2y2  Ryd( 4d)     0.00090       1.88317
 160    C  7  dz2    Ryd( 3d)     0.00329       1.30976
 161    C  7  dz2    Ryd( 4d)     0.00081       1.86895
 
 162    C  8  s      Cor( 1s)     1.99886     -10.16670
 163    C  8  s      Val( 2s)     0.99648      -0.19017
 164    C  8  s      Ryd( 4s)     0.00073       1.75831
 165    C  8  s      Ryd( 3s)     0.00017       0.61927
 166    C  8  px     Val( 2p)     1.01001      -0.08465
 167    C  8  px     Ryd( 4p)     0.00347       0.89233
 168    C  8  px     Ryd( 3p)     0.00018       0.37233
 169    C  8  py     Val( 2p)     1.12827      -0.06365
 170    C  8  py     Ryd( 4p)     0.00318       0.96711
 171    C  8  py     Ryd( 3p)     0.00011       0.45281
 172    C  8  pz     Val( 2p)     1.04220      -0.06691
 173    C  8  pz     Ryd( 4p)     0.00384       0.94801
 174    C  8  pz     Ryd( 3p)     0.00017       0.40972
 175    C  8  dxy    Ryd( 4d)     0.00099       1.58405
 176    C  8  dxy    Ryd( 3d)     0.00068       1.39174
 177    C  8  dxz    Ryd( 4d)     0.00252       1.63607
 178    C  8  dxz    Ryd( 3d)     0.00029       1.28775
 179    C  8  dyz    Ryd( 4d)     0.00058       1.88185
 180    C  8  dyz    Ryd( 3d)     0.00112       1.41019
 181    C  8  dx2y2  Ryd( 4d)     0.00197       1.80407
 182    C  8  dx2y2  Ryd( 3d)     0.00026       1.36746
 183    C  8  dz2    Ryd( 4d)     0.00094       1.52103
 184    C  8  dz2    Ryd( 3d)     0.00027       1.34529
 
 185    C  9  s      Cor( 1s)     1.99886     -10.16666
 186    C  9  s      Val( 2s)     0.99638      -0.19010
 187    C  9  s      Ryd( 4s)     0.00073       1.75830
 188    C  9  s      Ryd( 3s)     0.00017       0.61932
 189    C  9  px     Val( 2p)     1.01005      -0.08462
 190    C  9  px     Ryd( 4p)     0.00347       0.89247
 191    C  9  px     Ryd( 3p)     0.00018       0.37254
 192    C  9  py     Val( 2p)     1.12837      -0.06367
 193    C  9  py     Ryd( 4p)     0.00318       0.96723
 194    C  9  py     Ryd( 3p)     0.00011       0.45293
 195    C  9  pz     Val( 2p)     1.04219      -0.06695
 196    C  9  pz     Ryd( 4p)     0.00384       0.94779
 197    C  9  pz     Ryd( 3p)     0.00017       0.40956
 198    C  9  dxy    Ryd( 4d)     0.00099       1.58481
 199    C  9  dxy    Ryd( 3d)     0.00068       1.39191
 200    C  9  dxz    Ryd( 4d)     0.00252       1.63638
 201    C  9  dxz    Ryd( 3d)     0.00029       1.28770
 202    C  9  dyz    Ryd( 4d)     0.00058       1.88130
 203    C  9  dyz    Ryd( 3d)     0.00112       1.40994
 204    C  9  dx2y2  Ryd( 4d)     0.00197       1.80425
 205    C  9  dx2y2  Ryd( 3d)     0.00026       1.36791
 206    C  9  dz2    Ryd( 4d)     0.00094       1.52115
 207    C  9  dz2    Ryd( 3d)     0.00027       1.34480
 
 208    C 10  s      Cor( 1s)     1.99907     -10.17899
 209    C 10  s      Val( 2s)     0.99040      -0.21355
 210    C 10  s      Ryd( 4s)     0.00085       2.13309
 211    C 10  s      Ryd( 3s)     0.00013       0.74430
 212    C 10  px     Val( 2p)     1.03331      -0.06575
 213    C 10  px     Ryd( 4p)     0.00236       1.00257
 214    C 10  px     Ryd( 3p)     0.00019       0.48341
 215    C 10  py     Val( 2p)     1.05195      -0.08834
 216    C 10  py     Ryd( 4p)     0.00653       1.08731
 217    C 10  py     Ryd( 3p)     0.00011       0.62901
 218    C 10  pz     Val( 2p)     1.15062      -0.09865
 219    C 10  pz     Ryd( 4p)     0.00284       1.11164
 220    C 10  pz     Ryd( 3p)     0.00014       0.57669
 221    C 10  dxy    Ryd( 3d)     0.00172       1.05474
 222    C 10  dxy    Ryd( 4d)     0.00117       1.85202
 223    C 10  dxz    Ryd( 3d)     0.00205       1.32591
 224    C 10  dxz    Ryd( 4d)     0.00088       1.90764
 225    C 10  dyz    Ryd( 3d)     0.00162       1.22603
 226    C 10  dyz    Ryd( 4d)     0.00107       1.89074
 227    C 10  dx2y2  Ryd( 3d)     0.00255       1.09327
 228    C 10  dx2y2  Ryd( 4d)     0.00090       1.88352
 229    C 10  dz2    Ryd( 3d)     0.00329       1.30977
 230    C 10  dz2    Ryd( 4d)     0.00081       1.86909
 
 231    H 11  s      Val( 1s)     0.76276       0.08742
 232    H 11  s      Ryd( 2s)     0.00077       0.47030
 233    H 11  s      Ryd( 3s)     0.00002       0.81330
 234    H 11  px     Ryd( 2p)     0.00094       0.49412
 235    H 11  px     Ryd( 3p)     0.00059       2.42102
 236    H 11  py     Ryd( 2p)     0.00164       0.53162
 237    H 11  py     Ryd( 3p)     0.00031       2.22351
 238    H 11  pz     Ryd( 2p)     0.00010       0.48430
 239    H 11  pz     Ryd( 3p)     0.00020       1.90147
 
 240    H 12  s      Val( 1s)     0.76274       0.08743
 241    H 12  s      Ryd( 2s)     0.00077       0.47036
 242    H 12  s      Ryd( 3s)     0.00002       0.81319
 243    H 12  px     Ryd( 2p)     0.00094       0.49383
 244    H 12  px     Ryd( 3p)     0.00059       2.42161
 245    H 12  py     Ryd( 2p)     0.00164       0.53150
 246    H 12  py     Ryd( 3p)     0.00031       2.22360
 247    H 12  pz     Ryd( 2p)     0.00010       0.48417
 248    H 12  pz     Ryd( 3p)     0.00020       1.90164
 
 249    H 13  s      Val( 1s)     0.75992       0.08234
 250    H 13  s      Ryd( 2s)     0.00073       0.55490
 251    H 13  s      Ryd( 3s)     0.00003       0.72737
 252    H 13  px     Ryd( 2p)     0.00150       0.59164
 253    H 13  px     Ryd( 3p)     0.00024       2.09800
 254    H 13  py     Ryd( 2p)     0.00085       0.55517
 255    H 13  py     Ryd( 3p)     0.00064       2.53976
 256    H 13  pz     Ryd( 2p)     0.00013       0.52041
 257    H 13  pz     Ryd( 3p)     0.00018       1.88004
 
 258    H 14  s      Val( 1s)     0.75991       0.08235
 259    H 14  s      Ryd( 2s)     0.00073       0.55492
 260    H 14  s      Ryd( 3s)     0.00003       0.72736
 261    H 14  px     Ryd( 2p)     0.00150       0.59193
 262    H 14  px     Ryd( 3p)     0.00024       2.09768
 263    H 14  py     Ryd( 2p)     0.00085       0.55547
 264    H 14  py     Ryd( 3p)     0.00064       2.53946
 265    H 14  pz     Ryd( 2p)     0.00013       0.52060
 266    H 14  pz     Ryd( 3p)     0.00018       1.87978
 
 267    H 15  s      Val( 1s)     0.74580       0.07811
 268    H 15  s      Ryd( 2s)     0.00047       0.52769
 269    H 15  s      Ryd( 3s)     0.00006       0.74401
 270    H 15  px     Ryd( 2p)     0.00068       0.79428
 271    H 15  px     Ryd( 3p)     0.00027       1.94501
 272    H 15  py     Ryd( 2p)     0.00038       0.77759
 273    H 15  py     Ryd( 3p)     0.00026       2.01688
 274    H 15  pz     Ryd( 2p)     0.00065       0.76639
 275    H 15  pz     Ryd( 3p)     0.00046       2.13927
 
 276    H 16  s      Val( 1s)     0.77138       0.08129
 277    H 16  s      Ryd( 2s)     0.00060       0.48848
 278    H 16  s      Ryd( 3s)     0.00005       0.65112
 279    H 16  px     Ryd( 2p)     0.00034       0.70838
 280    H 16  px     Ryd( 3p)     0.00030       1.84692
 281    H 16  py     Ryd( 2p)     0.00089       0.75550
 282    H 16  py     Ryd( 3p)     0.00051       2.04835
 283    H 16  pz     Ryd( 2p)     0.00053       0.72892
 284    H 16  pz     Ryd( 3p)     0.00038       1.98511
 
 285    H 17  s      Val( 1s)     0.77137       0.08129
 286    H 17  s      Ryd( 2s)     0.00060       0.48854
 287    H 17  s      Ryd( 3s)     0.00005       0.65097
 288    H 17  px     Ryd( 2p)     0.00034       0.70810
 289    H 17  px     Ryd( 3p)     0.00030       1.84765
 290    H 17  py     Ryd( 2p)     0.00089       0.75513
 291    H 17  py     Ryd( 3p)     0.00051       2.04893
 292    H 17  pz     Ryd( 2p)     0.00053       0.72850
 293    H 17  pz     Ryd( 3p)     0.00038       1.98494
 
 294    H 18  s      Val( 1s)     0.74581       0.07808
 295    H 18  s      Ryd( 2s)     0.00047       0.52784
 296    H 18  s      Ryd( 3s)     0.00006       0.74378
 297    H 18  px     Ryd( 2p)     0.00068       0.79306
 298    H 18  px     Ryd( 3p)     0.00027       1.94655
 299    H 18  py     Ryd( 2p)     0.00038       0.77635
 300    H 18  py     Ryd( 3p)     0.00026       2.01812
 301    H 18  pz     Ryd( 2p)     0.00065       0.76515
 302    H 18  pz     Ryd( 3p)     0.00046       2.14051
 
   1 low occupancy (<1.9990e) core orbital  found on  C  3
   1 low occupancy (<1.9990e) core orbital  found on  C  4
   1 low occupancy (<1.9990e) core orbital  found on  C  5
   1 low occupancy (<1.9990e) core orbital  found on  C  6
   1 low occupancy (<1.9990e) core orbital  found on  C  8
   1 low occupancy (<1.9990e) core orbital  found on  C  9
 
     Population inversion found on atom  C  1
     Population inversion found on atom  C  2
     Population inversion found on atom  C  3
     Population inversion found on atom  C  4
     Population inversion found on atom  C  5
     Population inversion found on atom  C  6
     Population inversion found on atom  C  7
     Population inversion found on atom  C  8
     Population inversion found on atom  C  9
     Population inversion found on atom  C 10
     Population inversion found on atom  H 11
     Population inversion found on atom  H 12
     Population inversion found on atom  H 13
     Population inversion found on atom  H 14


 Summary of Natural Population Analysis:

                                     Natural Population
             Natural    ---------------------------------------------
  Atom No    Charge        Core      Valence    Rydberg      Total
 --------------------------------------------------------------------
    C  1   -0.23161      1.99903     4.21414    0.01844     6.23161
    C  2   -0.23172      1.99903     4.21426    0.01844     6.23172
    C  3   -0.22390      1.99884     4.20595    0.01910     6.22390
    C  4   -0.03699      1.99876     4.01264    0.02559     6.03699
    C  5   -0.03700      1.99876     4.01265    0.02559     6.03700
    C  6   -0.22388      1.99884     4.20594    0.01910     6.22388
    C  7   -0.25464      1.99907     4.22636    0.02920     6.25464
    C  8   -0.19728      1.99886     4.17695    0.02147     6.19728
    C  9   -0.19733      1.99886     4.17700    0.02147     6.19733
    C 10   -0.25456      1.99907     4.22628    0.02921     6.25456
    H 11    0.23266      0.00000     0.76276    0.00458     0.76734
    H 12    0.23268      0.00000     0.76274    0.00458     0.76732
    H 13    0.23579      0.00000     0.75992    0.00429     0.76421
    H 14    0.23580      0.00000     0.75991    0.00429     0.76420
    H 15    0.25097      0.00000     0.74580    0.00324     0.74903
    H 16    0.22502      0.00000     0.77138    0.00360     0.77498
    H 17    0.22503      0.00000     0.77137    0.00360     0.77497
    H 18    0.25096      0.00000     0.74581    0.00324     0.74904
 ====================================================================
 * Total * -0.00000     19.98912    47.75186    0.25903    68.00000

                                 Natural Population      
 --------------------------------------------------------
   Core                      19.98912 ( 99.9456% of  20)
   Valence                   47.75186 ( 99.4830% of  48)
   Natural Minimal Basis     67.74097 ( 99.6191% of  68)
   Natural Rydberg Basis      0.25903 (  0.3809% of  68)
 --------------------------------------------------------

    Atom No         Natural Electron Configuration
 ----------------------------------------------------------------------------
      C  1      [core]2s( 0.96)2p( 3.25)4p( 0.01)
      C  2      [core]2s( 0.96)2p( 3.25)4p( 0.01)
      C  3      [core]2s( 0.95)2p( 3.25)4p( 0.01)
      C  4      [core]2s( 0.88)2p( 3.13)3d( 0.01)4p( 0.01)
      C  5      [core]2s( 0.88)2p( 3.13)3d( 0.01)4p( 0.01)
      C  6      [core]2s( 0.95)2p( 3.25)4p( 0.01)
      C  7      [core]2s( 0.99)2p( 3.24)3d( 0.01)4p( 0.01)
      C  8      [core]2s( 1.00)2p( 3.18)4p( 0.01)4d( 0.01)
      C  9      [core]2s( 1.00)2p( 3.18)4p( 0.01)4d( 0.01)
      C 10      [core]2s( 0.99)2p( 3.24)3d( 0.01)4p( 0.01)
      H 11            1s( 0.76)
      H 12            1s( 0.76)
      H 13            1s( 0.76)
      H 14            1s( 0.76)
      H 15            1s( 0.75)
      H 16            1s( 0.77)
      H 17            1s( 0.77)
      H 18            1s( 0.75)


 NATURAL BOND ORBITAL ANALYSIS:

                       Occupancies       Lewis Structure    Low   High
           Occ.    -------------------  -----------------   occ   occ
  Cycle   Thresh.   Lewis   Non-Lewis     CR  BD  3C  LP    (L)   (NL)   Dev
 =============================================================================
   1(1)    1.90    64.45541   3.54459     10  21   0   3     3      3    0.45
   2(2)    1.90    64.45541   3.54459     10  21   0   3     3      3    0.45
   3(1)    1.80    64.45541   3.54459     10  21   0   3     3      3    0.45
   4(2)    1.80    64.45541   3.54459     10  21   0   3     3      3    0.45
   5(1)    1.70    64.45541   3.54459     10  21   0   3     3      3    0.45
   6(2)    1.70    64.45541   3.54459     10  21   0   3     3      3    0.45
   7(1)    1.60    65.74497   2.25503     10  23   0   1     1      3    0.42
   8(2)    1.60    66.44126   1.55874     10  24   0   0     0      3    0.42
   9(3)    1.60    65.76702   2.23298     10  23   0   1     1      3    0.45
  10(4)    1.60    66.44126   1.55874     10  24   0   0     0      3    0.42
  11(1)    1.50    66.44126   1.55874     10  24   0   0     0      3    0.42
  12(2)    1.50    66.38221   1.61779     10  24   0   0     0      3    0.45
  13(3)    1.50    66.44126   1.55874     10  24   0   0     0      3    0.42
  14(1)    1.60    66.44126   1.55874     10  24   0   0     0      3    0.42
 -----------------------------------------------------------------------------

 Strongly delocalized structure accepted

           1 low occupancy (<1.9990e) core orbital  found on  C 3
           1 low occupancy (<1.9990e) core orbital  found on  C 4
           1 low occupancy (<1.9990e) core orbital  found on  C 5
           1 low occupancy (<1.9990e) core orbital  found on  C 6
           1 low occupancy (<1.9990e) core orbital  found on  C 8
           1 low occupancy (<1.9990e) core orbital  found on  C 9

 --------------------------------------------------------
   Core                     19.98914 ( 99.946% of  20)
   Valence Lewis            46.45212 ( 96.775% of  48)
  ==================       ============================
   Total Lewis              66.44126 ( 97.708% of  68)
  -----------------------------------------------------
   Valence non-Lewis         1.41747 (  2.085% of  68)
   Rydberg non-Lewis         0.14127 (  0.208% of  68)
  ==================       ============================
   Total non-Lewis           1.55874 (  2.292% of  68)
 --------------------------------------------------------


     (Occupancy)   Bond orbital/ Coefficients/ Hybrids
 -------------------------------------------------------------------------------
   1. (1.97758) BD ( 1) C  1- C  2       
               ( 50.00%)   0.7071* C  1 s( 35.67%)p 1.80( 64.16%)d 0.00(  0.17%)
                                        -0.0000 -0.5971 -0.0124 -0.0006 -0.0070
                                        -0.0356 -0.0017 -0.8000 -0.0142  0.0050
                                        -0.0042 -0.0079 -0.0004  0.0066 -0.0018
                                        -0.0054  0.0045  0.0015 -0.0005  0.0264
                                        -0.0004  0.0285 -0.0113
               ( 50.00%)   0.7071* C  2 s( 35.66%)p 1.80( 64.16%)d 0.00(  0.17%)
                                        -0.0000 -0.5971 -0.0124 -0.0006 -0.0069
                                        -0.0356 -0.0017  0.8000  0.0142 -0.0050
                                        -0.0042 -0.0079 -0.0004 -0.0066  0.0018
                                        -0.0054  0.0045 -0.0015  0.0005  0.0264
                                        -0.0004  0.0285 -0.0113
   2. (1.68363) BD ( 2) C  1- C  2       
               ( 50.00%)   0.7071* C  1 s(  0.00%)p 1.00( 99.95%)d 0.00(  0.05%)
                                        -0.0000 -0.0000 -0.0002  0.0001 -0.2183
                                         0.0033 -0.0026 -0.0031 -0.0001  0.0000
                                         0.9755 -0.0146  0.0097 -0.0035 -0.0021
                                        -0.0100 -0.0028  0.0157  0.0101  0.0023
                                         0.0005 -0.0039 -0.0012
               ( 50.00%)   0.7071* C  2 s(  0.00%)p 1.00( 99.95%)d 0.00(  0.05%)
                                        -0.0000 -0.0001 -0.0002  0.0002 -0.2183
                                         0.0033 -0.0026  0.0032  0.0001 -0.0000
                                         0.9755 -0.0146  0.0097  0.0035  0.0021
                                        -0.0100 -0.0028 -0.0157 -0.0101  0.0023
                                         0.0005 -0.0039 -0.0012
   3. (1.97348) BD ( 1) C  1- C  6       
               ( 49.64%)   0.7045* C  1 s( 35.26%)p 1.83( 64.56%)d 0.01(  0.18%)
                                         0.0001  0.5938  0.0096  0.0007 -0.6564
                                         0.0111  0.0065 -0.4372 -0.0381  0.0028
                                        -0.1483  0.0025  0.0015  0.0201  0.0001
                                         0.0149 -0.0054  0.0045  0.0001  0.0161
                                        -0.0035 -0.0268  0.0111
               ( 50.36%)   0.7097* C  6 s( 34.89%)p 1.86( 64.94%)d 0.00(  0.17%)
                                        -0.0001  0.5905  0.0126 -0.0001  0.6850
                                         0.0292 -0.0018  0.3944 -0.0302 -0.0031
                                         0.1512  0.0067 -0.0006  0.0235  0.0015
                                         0.0120 -0.0039  0.0050  0.0004  0.0031
                                         0.0028 -0.0281  0.0113
   4. (1.98138) BD ( 1) C  1- H 11       
               ( 61.82%)   0.7863* C  1 s( 28.85%)p 2.46( 71.09%)d 0.00(  0.07%)
                                        -0.0003  0.5368 -0.0179 -0.0014  0.7205
                                        -0.0054 -0.0005 -0.4075  0.0026  0.0000
                                         0.1600 -0.0012 -0.0001 -0.0059 -0.0179
                                         0.0045  0.0052 -0.0013 -0.0039  0.0032
                                         0.0116 -0.0095 -0.0062
               ( 38.18%)   0.6179* H 11 s( 99.84%)p 0.00(  0.16%)
                                         0.9992 -0.0021  0.0002 -0.0233 -0.0249
                                         0.0135  0.0138 -0.0053 -0.0054
   5. (1.97348) BD ( 1) C  2- C  3       
               ( 49.64%)   0.7045* C  2 s( 35.28%)p 1.83( 64.54%)d 0.01(  0.18%)
                                         0.0001  0.5939  0.0097  0.0007 -0.6562
                                         0.0111  0.0065  0.4373  0.0381 -0.0028
                                        -0.1482  0.0026  0.0015 -0.0201 -0.0001
                                         0.0149 -0.0054 -0.0045 -0.0001  0.0161
                                        -0.0035 -0.0268  0.0111
               ( 50.36%)   0.7097* C  3 s( 34.91%)p 1.86( 64.92%)d 0.00(  0.17%)
                                        -0.0001  0.5908  0.0126 -0.0001  0.6848
                                         0.0293 -0.0018 -0.3945  0.0302  0.0031
                                         0.1512  0.0067 -0.0006 -0.0235 -0.0015
                                         0.0120 -0.0039 -0.0050 -0.0005  0.0031
                                         0.0028 -0.0281  0.0114
   6. (1.98135) BD ( 1) C  2- H 12       
               ( 61.82%)   0.7863* C  2 s( 28.84%)p 2.47( 71.09%)d 0.00(  0.07%)
                                        -0.0003  0.5367 -0.0179 -0.0014  0.7207
                                        -0.0054 -0.0005  0.4072 -0.0026 -0.0000
                                         0.1600 -0.0012 -0.0001  0.0059  0.0179
                                         0.0045  0.0052  0.0013  0.0039  0.0032
                                         0.0116 -0.0095 -0.0062
               ( 38.18%)   0.6179* H 12 s( 99.84%)p 0.00(  0.16%)
                                         0.9992 -0.0021  0.0002 -0.0233 -0.0249
                                        -0.0134 -0.0138 -0.0053 -0.0054
   7. (1.97894) BD ( 1) C  3- C  4       
               ( 48.73%)   0.6981* C  3 s( 34.98%)p 1.85( 64.84%)d 0.01(  0.19%)
                                        -0.0000  0.5913  0.0105  0.0039 -0.6954
                                        -0.0199  0.0048 -0.3765  0.0269  0.0030
                                        -0.1479 -0.0056  0.0012  0.0279 -0.0054
                                         0.0128 -0.0030  0.0060 -0.0011  0.0085
                                         0.0021 -0.0268  0.0091
               ( 51.27%)   0.7160* C  4 s( 38.88%)p 1.57( 61.01%)d 0.00(  0.11%)
                                        -0.0000  0.6232  0.0180 -0.0036  0.5895
                                        -0.0159 -0.0007  0.4916  0.0330 -0.0008
                                         0.1396 -0.0023 -0.0006  0.0035  0.0155
                                         0.0127  0.0035  0.0013  0.0034  0.0104
                                         0.0044 -0.0235 -0.0048
   8. (1.65854) BD ( 2) C  3- C  4       
               ( 50.18%)   0.7084* C  3 s(  0.00%)p 1.00( 99.93%)d 0.00(  0.07%)
                                        -0.0000 -0.0001  0.0003 -0.0005 -0.2116
                                         0.0017 -0.0014  0.0070 -0.0001  0.0002
                                         0.9769 -0.0091  0.0087  0.0042  0.0023
                                        -0.0064 -0.0085 -0.0197 -0.0109  0.0015
                                         0.0017 -0.0035 -0.0026
               ( 49.82%)   0.7058* C  4 s(  0.02%)p99.99( 99.91%)d 3.78(  0.08%)
                                         0.0001 -0.0141  0.0001 -0.0003 -0.2171
                                         0.0021 -0.0043  0.0013  0.0000  0.0006
                                         0.9756  0.0016  0.0129  0.0033  0.0007
                                        -0.0046  0.0195 -0.0160 -0.0002  0.0006
                                        -0.0045 -0.0014  0.0076
   9. (1.98215) BD ( 1) C  3- H 13       
               ( 62.07%)   0.7879* C  3 s( 29.87%)p 2.35( 70.06%)d 0.00(  0.08%)
                                        -0.0002  0.5462 -0.0170 -0.0034  0.0118
                                         0.0021  0.0003  0.8369 -0.0043 -0.0025
                                        -0.0034  0.0006  0.0002 -0.0005  0.0014
                                         0.0029 -0.0030 -0.0004 -0.0001 -0.0048
                                        -0.0240 -0.0097 -0.0068
               ( 37.93%)   0.6158* H 13 s( 99.84%)p 0.00(  0.16%)
                                         0.9992 -0.0024  0.0002 -0.0012 -0.0006
                                        -0.0303 -0.0263 -0.0003  0.0002
  10. (1.95914) BD ( 1) C  4- C  5       
               ( 50.00%)   0.7071* C  4 s( 30.57%)p 2.26( 69.21%)d 0.01(  0.22%)
                                        -0.0000  0.5528 -0.0088  0.0055  0.0964
                                         0.0138 -0.0005 -0.8256 -0.0042  0.0068
                                         0.0305  0.0002 -0.0011 -0.0036 -0.0011
                                         0.0107 -0.0008 -0.0026 -0.0007 -0.0149
                                        -0.0168 -0.0390 -0.0094
               ( 50.00%)   0.7071* C  5 s( 30.59%)p 2.26( 69.19%)d 0.01(  0.22%)
                                        -0.0000  0.5530 -0.0088  0.0055  0.0965
                                         0.0138 -0.0005  0.8255  0.0042 -0.0068
                                         0.0303  0.0002 -0.0011  0.0036  0.0011
                                         0.0107 -0.0008  0.0026  0.0007 -0.0148
                                        -0.0168 -0.0390 -0.0096
  11. (1.96599) BD ( 1) C  4- C 10       
               ( 50.57%)   0.7111* C  4 s( 30.15%)p 2.31( 69.75%)d 0.00(  0.11%)
                                        -0.0001  0.5490 -0.0085 -0.0005 -0.7706
                                         0.0336  0.0055  0.2724  0.0355  0.0030
                                        -0.1641  0.0021  0.0004  0.0140 -0.0062
                                         0.0033  0.0081  0.0015 -0.0012  0.0123
                                         0.0147 -0.0167 -0.0103
               ( 49.43%)   0.7031* C 10 s( 26.17%)p 2.81( 73.55%)d 0.01(  0.28%)
                                         0.0001  0.5115  0.0033  0.0030  0.8202
                                         0.0009 -0.0000  0.1513  0.0355  0.0011
                                         0.1950 -0.0246  0.0009 -0.0193  0.0031
                                         0.0244  0.0053 -0.0074 -0.0004  0.0285
                                         0.0138 -0.0278 -0.0037
  12. (1.97896) BD ( 1) C  5- C  6       
               ( 51.27%)   0.7160* C  5 s( 38.87%)p 1.57( 61.02%)d 0.00(  0.11%)
                                        -0.0000  0.6232  0.0180 -0.0036  0.5895
                                        -0.0159 -0.0007 -0.4919 -0.0330  0.0008
                                         0.1395 -0.0023 -0.0006 -0.0034 -0.0155
                                         0.0127  0.0035 -0.0013 -0.0034  0.0104
                                         0.0044 -0.0235 -0.0049
               ( 48.73%)   0.6981* C  6 s( 34.99%)p 1.85( 64.82%)d 0.01(  0.19%)
                                        -0.0000  0.5914  0.0105  0.0039 -0.6952
                                        -0.0199  0.0048  0.3768 -0.0269 -0.0030
                                        -0.1477 -0.0056  0.0012 -0.0279  0.0054
                                         0.0128 -0.0030 -0.0060  0.0010  0.0085
                                         0.0021 -0.0268  0.0091
  13. (1.65860) BD ( 2) C  5- C  6       
               ( 49.83%)   0.7059* C  5 s(  0.02%)p99.99( 99.91%)d 3.91(  0.08%)
                                         0.0001 -0.0138  0.0001 -0.0003 -0.2171
                                         0.0021 -0.0043 -0.0012 -0.0000 -0.0006
                                         0.9756  0.0016  0.0129 -0.0033 -0.0007
                                        -0.0046  0.0195  0.0160  0.0002  0.0006
                                        -0.0045 -0.0014  0.0076
               ( 50.17%)   0.7083* C  6 s(  0.00%)p 1.00( 99.93%)d 0.00(  0.07%)
                                        -0.0000 -0.0002  0.0003 -0.0005 -0.2115
                                         0.0018 -0.0014 -0.0070  0.0001 -0.0002
                                         0.9769 -0.0091  0.0087 -0.0042 -0.0023
                                        -0.0064 -0.0085  0.0197  0.0109  0.0015
                                         0.0017 -0.0035 -0.0026
  14. (1.96601) BD ( 1) C  5- C  7       
               ( 50.56%)   0.7111* C  5 s( 30.14%)p 2.31( 69.76%)d 0.00(  0.11%)
                                        -0.0001  0.5489 -0.0085 -0.0005 -0.7707
                                         0.0336  0.0055 -0.2724 -0.0355 -0.0030
                                        -0.1642  0.0021  0.0004 -0.0140  0.0062
                                         0.0033  0.0081 -0.0015  0.0012  0.0122
                                         0.0148 -0.0167 -0.0103
               ( 49.44%)   0.7031* C  7 s( 26.17%)p 2.81( 73.54%)d 0.01(  0.28%)
                                         0.0001  0.5116  0.0033  0.0030  0.8201
                                         0.0010 -0.0000 -0.1510 -0.0355 -0.0011
                                         0.1953 -0.0246  0.0009  0.0193 -0.0030
                                         0.0244  0.0053  0.0074  0.0005  0.0285
                                         0.0138 -0.0278 -0.0037
  15. (1.98216) BD ( 1) C  6- H 14       
               ( 62.07%)   0.7879* C  6 s( 29.88%)p 2.34( 70.04%)d 0.00(  0.08%)
                                         0.0002 -0.5464  0.0170  0.0034 -0.0116
                                        -0.0021 -0.0003  0.8368 -0.0042 -0.0025
                                         0.0033 -0.0006 -0.0002 -0.0005  0.0014
                                        -0.0029  0.0030 -0.0004 -0.0001  0.0048
                                         0.0240  0.0097  0.0068
               ( 37.93%)   0.6158* H 14 s( 99.84%)p 0.00(  0.16%)
                                        -0.9992  0.0024 -0.0002  0.0012  0.0006
                                        -0.0304 -0.0263  0.0003 -0.0002
  16. (1.96599) BD ( 1) C  7- C  8       
               ( 51.59%)   0.7183* C  7 s( 25.99%)p 2.84( 73.78%)d 0.01(  0.23%)
                                        -0.0002 -0.5098 -0.0020  0.0005  0.5058
                                         0.0241 -0.0015  0.1399  0.0377 -0.0012
                                        -0.6783  0.0173  0.0006  0.0131 -0.0023
                                         0.0298  0.0131 -0.0244  0.0025  0.0012
                                        -0.0076 -0.0185 -0.0084
               ( 48.41%)   0.6958* C  8 s( 28.90%)p 2.45( 70.85%)d 0.01(  0.25%)
                                        -0.0000 -0.5375  0.0104 -0.0062 -0.4788
                                         0.0125  0.0053  0.2619  0.0444  0.0016
                                         0.6390 -0.0118 -0.0059 -0.0018  0.0043
                                         0.0460 -0.0069 -0.0005 -0.0031 -0.0106
                                         0.0020 -0.0140 -0.0010
  17. (1.94770) BD ( 1) C  7- C 10       
               ( 50.00%)   0.7071* C  7 s( 19.41%)p 4.13( 80.18%)d 0.02(  0.41%)
                                         0.0000 -0.4404  0.0132  0.0011  0.0681
                                         0.0165  0.0019 -0.8677  0.0236 -0.0009
                                         0.2052  0.0353 -0.0010 -0.0117  0.0027
                                         0.0141 -0.0008 -0.0172  0.0044  0.0351
                                         0.0167  0.0432  0.0073
               ( 50.00%)   0.7071* C 10 s( 19.42%)p 4.13( 80.17%)d 0.02(  0.41%)
                                         0.0000 -0.4405  0.0132  0.0011  0.0679
                                         0.0165  0.0019  0.8677 -0.0236  0.0009
                                         0.2052  0.0353 -0.0010  0.0117 -0.0027
                                         0.0141 -0.0008  0.0172 -0.0044  0.0351
                                         0.0167  0.0432  0.0073
  18. (1.97876) BD ( 1) C  7- H 15       
               ( 63.03%)   0.7939* C  7 s( 27.87%)p 2.59( 72.05%)d 0.00(  0.09%)
                                         0.0002 -0.5278 -0.0052  0.0012  0.2508
                                         0.0028  0.0010  0.4474  0.0054  0.0011
                                         0.6763 -0.0015  0.0002  0.0034 -0.0064
                                         0.0093 -0.0110  0.0084 -0.0175 -0.0072
                                         0.0037  0.0064 -0.0121
               ( 36.97%)   0.6081* H 15 s( 99.84%)p 0.00(  0.16%)
                                        -0.9992  0.0028  0.0001 -0.0090 -0.0082
                                        -0.0157 -0.0127 -0.0233 -0.0218
  19. (1.98240) BD ( 1) C  8- C  9       
               ( 50.00%)   0.7071* C  8 s( 36.38%)p 1.74( 63.37%)d 0.01(  0.25%)
                                         0.0001  0.6030  0.0144 -0.0005 -0.1059
                                        -0.0340 -0.0008  0.7794  0.0128 -0.0051
                                         0.1088  0.0424  0.0005  0.0044 -0.0045
                                        -0.0149  0.0104 -0.0028  0.0039 -0.0408
                                         0.0030 -0.0215 -0.0002
               ( 50.00%)   0.7071* C  9 s( 36.37%)p 1.74( 63.38%)d 0.01(  0.25%)
                                         0.0001  0.6029  0.0144 -0.0005 -0.1062
                                        -0.0341 -0.0008 -0.7794 -0.0128  0.0051
                                         0.1088  0.0424  0.0005 -0.0044  0.0045
                                        -0.0149  0.0104  0.0028 -0.0039 -0.0408
                                         0.0030 -0.0215 -0.0002
  20. (1.94553) BD ( 2) C  8- C  9       
               ( 50.00%)   0.7071* C  8 s(  0.00%)p 1.00( 99.83%)d 0.00(  0.17%)
                                         0.0002 -0.0036  0.0023 -0.0028  0.8059
                                        -0.0230  0.0105  0.0295 -0.0013 -0.0008
                                         0.5892 -0.0125  0.0068  0.0300  0.0096
                                        -0.0053  0.0013  0.0208  0.0063  0.0054
                                         0.0005 -0.0121  0.0009
               ( 50.00%)   0.7071* C  9 s(  0.00%)p 1.00( 99.83%)d 0.00(  0.17%)
                                         0.0002 -0.0033  0.0022 -0.0028  0.8058
                                        -0.0230  0.0105 -0.0294  0.0013  0.0008
                                         0.5894 -0.0125  0.0068 -0.0300 -0.0096
                                        -0.0053  0.0013 -0.0207 -0.0063  0.0054
                                         0.0005 -0.0121  0.0009
  21. (1.99281) BD ( 1) C  8- H 16       
               ( 61.99%)   0.7874* C  8 s( 34.34%)p 1.91( 65.59%)d 0.00(  0.08%)
                                         0.0002 -0.5860  0.0033  0.0036  0.3272
                                        -0.0002 -0.0002  0.5647  0.0031 -0.0016
                                        -0.4795 -0.0004  0.0016 -0.0019 -0.0141
                                         0.0062  0.0054  0.0048  0.0204  0.0053
                                         0.0035 -0.0015 -0.0011
               ( 38.01%)   0.6165* H 16 s( 99.84%)p 0.00(  0.16%)
                                        -0.9992  0.0031 -0.0004 -0.0129 -0.0094
                                        -0.0239 -0.0137  0.0183  0.0152
  22. (1.96599) BD ( 1) C  9- C 10       
               ( 48.41%)   0.6957* C  9 s( 28.91%)p 2.45( 70.84%)d 0.01(  0.25%)
                                         0.0000  0.5375 -0.0104  0.0062  0.4788
                                        -0.0125 -0.0053  0.2617  0.0444  0.0016
                                        -0.6391  0.0117  0.0059 -0.0018  0.0043
                                        -0.0460  0.0069 -0.0005 -0.0031  0.0105
                                        -0.0020  0.0140  0.0010
               ( 51.59%)   0.7183* C 10 s( 26.01%)p 2.84( 73.76%)d 0.01(  0.23%)
                                         0.0002  0.5100  0.0021 -0.0005 -0.5056
                                        -0.0241  0.0015  0.1399  0.0377 -0.0012
                                         0.6783 -0.0172 -0.0006  0.0131 -0.0023
                                        -0.0298 -0.0131 -0.0244  0.0025 -0.0012
                                         0.0076  0.0184  0.0084
  23. (1.99280) BD ( 1) C  9- H 17       
               ( 61.99%)   0.7874* C  9 s( 34.34%)p 1.91( 65.58%)d 0.00(  0.08%)
                                        -0.0002  0.5860 -0.0033 -0.0036 -0.3274
                                         0.0002  0.0002  0.5648  0.0031 -0.0016
                                         0.4792  0.0004 -0.0016 -0.0019 -0.0141
                                        -0.0062 -0.0054  0.0048  0.0204 -0.0052
                                        -0.0035  0.0015  0.0011
               ( 38.01%)   0.6165* H 17 s( 99.84%)p 0.00(  0.16%)
                                         0.9992 -0.0031  0.0004  0.0130  0.0094
                                        -0.0239 -0.0137 -0.0183 -0.0152
  24. (1.97875) BD ( 1) C 10- H 18       
               ( 63.03%)   0.7939* C 10 s( 27.85%)p 2.59( 72.06%)d 0.00(  0.09%)
                                         0.0002 -0.5277 -0.0051  0.0012  0.2510
                                         0.0028  0.0010 -0.4474 -0.0054 -0.0011
                                         0.6763 -0.0015  0.0002 -0.0034  0.0064
                                         0.0093 -0.0110 -0.0084  0.0175 -0.0072
                                         0.0037  0.0064 -0.0121
               ( 36.97%)   0.6081* H 18 s( 99.84%)p 0.00(  0.16%)
                                        -0.9992  0.0028  0.0001 -0.0090 -0.0082
                                         0.0157  0.0128 -0.0233 -0.0218
  25. (1.99903) CR ( 1) C  1             s(100.00%)p 0.00(  0.00%)
                                         1.0000  0.0001 -0.0000 -0.0000  0.0002
                                        -0.0000 -0.0000 -0.0001  0.0000  0.0000
                                         0.0001 -0.0000 -0.0000 -0.0000 -0.0000
                                         0.0000  0.0000 -0.0000 -0.0000  0.0000
                                         0.0000 -0.0000 -0.0000
  26. (1.99903) CR ( 1) C  2             s(100.00%)p 0.00(  0.00%)
                                         1.0000  0.0001 -0.0000 -0.0000  0.0002
                                        -0.0000 -0.0000  0.0001 -0.0000 -0.0000
                                         0.0001 -0.0000 -0.0000  0.0000  0.0000
                                         0.0000  0.0000  0.0000  0.0000  0.0000
                                         0.0000 -0.0000 -0.0000
  27. (1.99885) CR ( 1) C  3             s(100.00%)p 0.00(  0.00%)
                                         1.0000  0.0002 -0.0000 -0.0000  0.0000
                                         0.0000  0.0000  0.0002  0.0000 -0.0000
                                         0.0000  0.0000  0.0000 -0.0000  0.0000
                                         0.0000 -0.0000 -0.0000 -0.0000 -0.0000
                                        -0.0000 -0.0000 -0.0000
  28. (1.99876) CR ( 1) C  4             s(100.00%)
                                         1.0000  0.0001 -0.0000  0.0000 -0.0000
                                         0.0000  0.0000  0.0000  0.0000  0.0000
                                        -0.0001 -0.0000 -0.0000  0.0000 -0.0000
                                         0.0000 -0.0000  0.0000 -0.0000  0.0000
                                         0.0000 -0.0000 -0.0000
  29. (1.99876) CR ( 1) C  5             s(100.00%)
                                         1.0000  0.0001 -0.0000  0.0000 -0.0000
                                         0.0000  0.0000 -0.0000 -0.0000 -0.0000
                                        -0.0001 -0.0000 -0.0000 -0.0000  0.0000
                                         0.0000 -0.0000 -0.0000  0.0000  0.0000
                                         0.0000 -0.0000 -0.0000
  30. (1.99885) CR ( 1) C  6             s(100.00%)p 0.00(  0.00%)
                                         1.0000  0.0002 -0.0000 -0.0000  0.0000
                                         0.0000  0.0000 -0.0002 -0.0000  0.0000
                                         0.0000  0.0000  0.0000  0.0000 -0.0000
                                         0.0000 -0.0000  0.0000  0.0000 -0.0000
                                        -0.0000 -0.0000 -0.0000
  31. (1.99907) CR ( 1) C  7             s(100.00%)p 0.00(  0.00%)
                                         1.0000 -0.0000 -0.0000 -0.0000 -0.0000
                                         0.0000 -0.0000 -0.0000  0.0000 -0.0000
                                        -0.0002  0.0000 -0.0000 -0.0000  0.0000
                                         0.0000  0.0000 -0.0000  0.0000 -0.0000
                                        -0.0000 -0.0000  0.0000
  32. (1.99887) CR ( 1) C  8             s(100.00%)p 0.00(  0.00%)
                                         1.0000  0.0001 -0.0000 -0.0000 -0.0002
                                         0.0000 -0.0000 -0.0001 -0.0000  0.0000
                                        -0.0000 -0.0000 -0.0000 -0.0000  0.0000
                                         0.0000 -0.0000 -0.0000 -0.0000  0.0000
                                        -0.0000  0.0000  0.0000
  33. (1.99887) CR ( 1) C  9             s(100.00%)p 0.00(  0.00%)
                                         1.0000  0.0001 -0.0000 -0.0000 -0.0002
                                         0.0000 -0.0000  0.0001  0.0000 -0.0000
                                        -0.0000 -0.0000 -0.0000  0.0000 -0.0000
                                         0.0000 -0.0000  0.0000  0.0000  0.0000
                                        -0.0000  0.0000  0.0000
  34. (1.99907) CR ( 1) C 10             s(100.00%)p 0.00(  0.00%)
                                         1.0000 -0.0000 -0.0000 -0.0000 -0.0000
                                         0.0000 -0.0000  0.0000 -0.0000  0.0000
                                        -0.0002  0.0000 -0.0000  0.0000 -0.0000
                                         0.0000  0.0000  0.0000 -0.0000 -0.0000
                                        -0.0000 -0.0000  0.0000
  35. (0.00530) RY*( 1) C  1             s(  0.48%)p99.99( 93.26%)d13.08(  6.26%)
                                        -0.0000  0.0226  0.0514 -0.0405 -0.0258
                                        -0.7986 -0.0078  0.0091  0.5136  0.0057
                                        -0.0056 -0.1739 -0.0001 -0.0661 -0.1760
                                         0.0346  0.0160 -0.0154 -0.0420  0.0392
                                         0.1307 -0.0658  0.0303
  36. (0.00272) RY*( 2) C  1             s(  0.12%)p99.99( 89.88%)d85.41( 10.00%)
                                        -0.0000 -0.0021  0.0341  0.0009 -0.0173
                                         0.4897  0.0439 -0.0383  0.7921  0.1236
                                        -0.0039  0.1122  0.0093 -0.0408  0.1596
                                        -0.0260  0.0587 -0.0098  0.0341 -0.0885
                                         0.2442  0.0043  0.0016
  37. (0.00076) RY*( 3) C  1             s(  0.01%)p 1.00(  2.08%)d47.02( 97.91%)
                                        -0.0000  0.0004 -0.0004  0.0075  0.0017
                                        -0.0338 -0.0075 -0.0000  0.0025  0.0013
                                        -0.0087  0.1386 -0.0178 -0.1492 -0.1153
                                         0.3600  0.2441  0.6494  0.5379 -0.0858
                                        -0.0562  0.1529  0.0972
  38. (0.00066) RY*( 4) C  1             s(  0.06%)p99.99( 91.89%)d99.99(  8.05%)
                                        -0.0000  0.0012 -0.0014  0.0245  0.0020
                                         0.2003 -0.0611 -0.0004  0.0083 -0.0046
                                        -0.0126 -0.9211  0.1624 -0.0056  0.0068
                                         0.2162  0.1265  0.0036 -0.0031 -0.0604
                                        -0.0345  0.1062  0.0392
  39. (0.00043) RY*( 5) C  1             s( 80.52%)p 0.01(  0.82%)d 0.23( 18.66%)
                                         0.0000 -0.0204  0.8918 -0.0972  0.0292
                                         0.0361 -0.0082 -0.0131 -0.0628  0.0418
                                         0.0064 -0.0042  0.0013  0.0613  0.0822
                                         0.1343 -0.0947  0.0238  0.0128  0.0317
                                        -0.0029 -0.3031  0.2355
  40. (0.00014) RY*( 6) C  1             s(  8.26%)p 1.13(  9.32%)d 9.98( 82.42%)
                                        -0.0000  0.0099  0.0552  0.2818  0.0117
                                        -0.1810  0.1635  0.0175 -0.1047  0.1388
                                         0.0025 -0.0361  0.0420  0.5336  0.5008
                                        -0.0159  0.1995  0.1291  0.0988  0.1261
                                         0.3624  0.0831 -0.2608
  41. (0.00012) RY*( 7) C  1             s(  9.08%)p 0.77(  7.01%)d 9.24( 83.91%)
                                        -0.0000  0.0034  0.0961  0.2855  0.0035
                                        -0.0417  0.1438 -0.0165  0.2064 -0.0677
                                         0.0007 -0.0014  0.0160  0.3338 -0.0326
                                        -0.1108 -0.0585  0.0817 -0.0080 -0.4519
                                        -0.6722 -0.0430 -0.2152
  42. (0.00007) RY*( 8) C  1             s(  2.83%)p 9.62( 27.25%)d24.67( 69.92%)
  43. (0.00006) RY*( 9) C  1             s( 15.14%)p 0.76( 11.45%)d 4.85( 73.41%)
  44. (0.00001) RY*(10) C  1             s(  6.62%)p 0.63(  4.15%)d13.48( 89.23%)
  45. (0.00000) RY*(11) C  1             s(  0.69%)p 6.68(  4.62%)d99.99( 94.69%)
  46. (0.00000) RY*(12) C  1             s(  0.63%)p 0.83(  0.52%)d99.99( 98.84%)
  47. (0.00000) RY*(13) C  1             s(  0.53%)p99.99( 79.61%)d37.73( 19.87%)
  48. (0.00000) RY*(14) C  1             s(  0.27%)p 4.40(  1.18%)d99.99( 98.56%)
  49. (0.00000) RY*(15) C  1             s(  2.76%)p24.10( 66.39%)d11.20( 30.85%)
  50. (0.00000) RY*(16) C  1             s(  0.08%)p99.99( 99.32%)d 7.98(  0.61%)
  51. (0.00001) RY*(17) C  1             s( 71.30%)p 0.00(  0.28%)d 0.40( 28.42%)
  52. (0.00001) RY*(18) C  1             s(  0.86%)p13.06( 11.21%)d99.99( 87.93%)
  53. (0.00530) RY*( 1) C  2             s(  0.48%)p99.99( 93.25%)d13.14(  6.27%)
                                        -0.0000  0.0225  0.0513 -0.0404 -0.0258
                                        -0.7985 -0.0078 -0.0090 -0.5135 -0.0058
                                        -0.0056 -0.1741 -0.0000  0.0661  0.1760
                                         0.0346  0.0161  0.0154  0.0420  0.0393
                                         0.1308 -0.0659  0.0304
  54. (0.00272) RY*( 2) C  2             s(  0.11%)p99.99( 89.88%)d88.10( 10.01%)
                                        -0.0000 -0.0020  0.0336  0.0010 -0.0173
                                         0.4896  0.0438  0.0382 -0.7921 -0.1236
                                        -0.0039  0.1121  0.0093  0.0407 -0.1598
                                        -0.0260  0.0587  0.0099 -0.0342 -0.0886
                                         0.2442  0.0043  0.0016
  55. (0.00076) RY*( 3) C  2             s(  0.01%)p 1.00(  1.85%)d53.14( 98.15%)
                                        -0.0000  0.0004 -0.0001  0.0076  0.0017
                                        -0.0319 -0.0081  0.0000 -0.0026 -0.0012
                                        -0.0088  0.1305 -0.0166  0.1493  0.1152
                                         0.3617  0.2450 -0.6495 -0.5380 -0.0863
                                        -0.0563  0.1537  0.0975
  56. (0.00066) RY*( 4) C  2             s(  0.06%)p99.99( 92.13%)d99.99(  7.81%)
                                        -0.0000  0.0012 -0.0018  0.0244  0.0020
                                         0.2007 -0.0608  0.0004 -0.0082  0.0046
                                        -0.0125 -0.9223  0.1625  0.0042 -0.0079
                                         0.2129  0.1243  0.0021  0.0076 -0.0597
                                        -0.0341  0.1048  0.0383
  57. (0.00043) RY*( 5) C  2             s( 80.55%)p 0.01(  0.81%)d 0.23( 18.63%)
                                         0.0000 -0.0204  0.8920 -0.0972  0.0292
                                         0.0364 -0.0086  0.0131  0.0624 -0.0419
                                         0.0064 -0.0045  0.0014 -0.0609 -0.0820
                                         0.1342 -0.0945 -0.0236 -0.0125  0.0318
                                        -0.0028 -0.3029  0.2356
  58. (0.00014) RY*( 6) C  2             s(  8.23%)p 1.13(  9.33%)d10.02( 82.45%)
                                        -0.0000  0.0098  0.0554  0.2812  0.0116
                                        -0.1810  0.1629 -0.0175  0.1055 -0.1391
                                         0.0025 -0.0361  0.0417 -0.5324 -0.5014
                                        -0.0158  0.1997 -0.1287 -0.0992  0.1270
                                         0.3637  0.0832 -0.2602
  59. (0.00012) RY*( 7) C  2             s(  9.13%)p 0.77(  7.03%)d 9.19( 83.85%)
                                        -0.0000  0.0035  0.0964  0.2863  0.0036
                                        -0.0421  0.1446  0.0164 -0.2064  0.0667
                                         0.0007 -0.0015  0.0160 -0.3352  0.0317
                                        -0.1108 -0.0580 -0.0825  0.0079 -0.4504
                                        -0.6719 -0.0428 -0.2157
  60. (0.00007) RY*( 8) C  2             s(  2.84%)p 9.59( 27.26%)d24.58( 69.89%)
  61. (0.00006) RY*( 9) C  2             s( 15.11%)p 0.76( 11.44%)d 4.86( 73.45%)
  62. (0.00001) RY*(10) C  2             s(  6.64%)p 0.63(  4.17%)d13.43( 89.19%)
  63. (0.00000) RY*(11) C  2             s(  0.70%)p 6.65(  4.62%)d99.99( 94.68%)
  64. (0.00000) RY*(12) C  2             s(  0.64%)p 0.82(  0.52%)d99.99( 98.84%)
  65. (0.00000) RY*(13) C  2             s(  0.53%)p99.99( 79.58%)d37.76( 19.90%)
  66. (0.00000) RY*(14) C  2             s(  0.27%)p 4.37(  1.17%)d99.99( 98.56%)
  67. (0.00000) RY*(15) C  2             s(  2.76%)p24.07( 66.40%)d11.18( 30.84%)
  68. (0.00000) RY*(16) C  2             s(  0.08%)p99.99( 99.32%)d 8.07(  0.61%)
  69. (0.00001) RY*(17) C  2             s( 71.24%)p 0.00(  0.28%)d 0.40( 28.48%)
  70. (0.00001) RY*(18) C  2             s(  0.86%)p13.05( 11.21%)d99.99( 87.93%)
  71. (0.00507) RY*( 1) C  3             s(  0.13%)p99.99( 88.87%)d88.00( 11.00%)
                                         0.0000  0.0221  0.0253  0.0110 -0.0002
                                         0.0594 -0.0126 -0.0286 -0.9403  0.0097
                                        -0.0002  0.0048 -0.0017  0.0135  0.0040
                                         0.0136 -0.0806  0.0049 -0.0028 -0.0904
                                        -0.2916 -0.0882  0.0461
  72. (0.00295) RY*( 2) C  3             s(  1.05%)p82.83( 86.78%)d11.61( 12.17%)
                                         0.0000  0.0056  0.0988 -0.0261  0.0357
                                        -0.8981 -0.1108  0.0003 -0.0507  0.0030
                                         0.0072 -0.2106 -0.0254  0.0767 -0.3301
                                         0.0035 -0.0119  0.0114 -0.0672  0.0416
                                        -0.0173 -0.0038  0.0057
  73. (0.00098) RY*( 3) C  3             s( 43.14%)p 0.67( 28.94%)d 0.65( 27.93%)
                                        -0.0000 -0.0175  0.6504 -0.0896 -0.0029
                                         0.1929  0.0131  0.0213  0.0929 -0.0613
                                        -0.0005 -0.4804  0.0916  0.0169 -0.0482
                                         0.2751  0.1791  0.0406  0.0788 -0.0484
                                        -0.1639 -0.0774  0.3547
  74. (0.00095) RY*( 4) C  3             s( 27.37%)p 0.64( 17.49%)d 2.01( 55.14%)
                                        -0.0000 -0.0165  0.5113 -0.1097 -0.0020
                                        -0.0193  0.0751  0.0172  0.0763 -0.0440
                                        -0.0061  0.3868 -0.1056  0.0360 -0.0164
                                        -0.3232 -0.5585 -0.0657 -0.0365  0.0916
                                         0.0127 -0.3415  0.0524
  75. (0.00058) RY*( 5) C  3             s(  3.03%)p17.72( 53.67%)d14.30( 43.30%)
                                        -0.0000 -0.0035  0.1724 -0.0237 -0.0039
                                        -0.1401 -0.0090  0.0052  0.0139 -0.0064
                                         0.0102  0.7174 -0.0436  0.0234 -0.0022
                                         0.3923  0.4038 -0.0944 -0.1464 -0.1011
                                        -0.1066  0.1104  0.2268
  76. (0.00016) RY*( 6) C  3             s( 25.28%)p 0.24(  5.99%)d 2.72( 68.73%)
                                         0.0000  0.0295  0.4915  0.1019  0.0006
                                        -0.0259 -0.0216  0.0056 -0.2199  0.1011
                                         0.0008  0.0118  0.0038 -0.0357  0.2098
                                        -0.1204  0.2399  0.0408  0.0092  0.1605
                                         0.4614  0.3364 -0.4653
  77. (0.00012) RY*( 7) C  3             s(  0.00%)p 1.00( 11.74%)d 7.52( 88.26%)
                                        -0.0000 -0.0021  0.0055  0.0017 -0.0134
                                         0.3103 -0.0163  0.0085 -0.0701  0.1141
                                        -0.0024  0.0517  0.0009 -0.1525 -0.8563
                                         0.0477  0.0418  0.0326 -0.2174  0.0690
                                         0.2472 -0.0410 -0.0785
  78. (0.00010) RY*( 8) C  3             s(  5.56%)p 2.31( 12.83%)d14.69( 81.61%)
[...]
                           0.064%  C  7 s( 27.54%)p 2.16( 59.50%)d 0.47( 12.96%)
                           0.018%  C  9 s(  6.33%)p14.44( 91.46%)d 0.35(  2.21%)
                           0.096%  C 10 s( 13.33%)p 4.94( 65.81%)d 1.57( 20.86%)
                           0.129%  H 12 s( 95.62%)p 0.05(  4.38%)
                           0.075%  H 13 s( 42.02%)p 1.38( 57.98%)
   8. (2.00000)  81.8748%  BD ( 2) C  3- C  4       
                           4.053%  C  1 s(  0.00%)p 1.00( 99.90%)d 0.00(  0.10%)
                           4.296%  C  2 s(  0.00%)p 1.00( 99.38%)d 0.01(  0.62%)
                          40.177%  C  3 s(  0.00%)p 1.00( 99.93%)d 0.00(  0.07%)
                          41.709%  C  4 s(  0.02%)p99.99( 99.91%)d 3.18(  0.07%)
                           5.643%  C  5 s(  0.00%)p 1.00( 99.34%)d 0.01(  0.66%)
                           3.282%  C  6 s(  0.00%)p 1.00( 99.80%)d 0.00(  0.20%)
                           0.086%  C  7 s(  8.67%)p 9.62( 83.37%)d 0.92(  7.96%)
                           0.087%  C  8 s( 17.72%)p 4.57( 81.03%)d 0.07(  1.25%)
                           0.224%  C  9 s( 35.49%)p 1.78( 63.29%)d 0.03(  1.22%)
                           0.279%  C 10 s(  1.45%)p63.31( 91.53%)d 4.86(  7.03%)
                           0.021%  H 15 s( 98.35%)p 0.02(  1.65%)
                           0.123%  H 18 s( 98.48%)p 0.02(  1.52%)
   9. (2.00000)  99.1048%  BD ( 1) C  3- H 13       
                           0.145%  C  1 s( 37.30%)p 1.64( 61.20%)d 0.04(  1.50%)
                           0.204%  C  2 s(  1.18%)p81.14( 95.78%)d 2.57(  3.04%)
                          61.577%  C  3 s( 27.36%)p 2.65( 72.56%)d 0.00(  0.07%)
                           0.235%  C  4 s(  1.47%)p64.59( 94.65%)d 2.65(  3.89%)
                           0.153%  C  5 s( 30.61%)p 2.21( 67.66%)d 0.06(  1.74%)
                           0.011%  C  6 s( 44.66%)p 1.22( 54.34%)d 0.02(  1.00%)
                           0.027%  C 10 s( 37.12%)p 1.58( 58.63%)d 0.11(  4.25%)
                           0.045%  H 12 s( 97.11%)p 0.03(  2.89%)
                          37.576%  H 13 s( 99.84%)p 0.00(  0.16%)
  10. (2.00000)  97.9464%  BD ( 1) C  4- C  5       
                           0.017%  C  1 s( 38.91%)p 1.44( 56.08%)d 0.13(  5.01%)
                           0.017%  C  2 s( 38.93%)p 1.44( 56.06%)d 0.13(  5.01%)
                           0.338%  C  3 s(  2.43%)p38.45( 93.36%)d 1.74(  4.21%)
                          49.087%  C  4 s( 26.21%)p 2.81( 73.57%)d 0.01(  0.21%)
                          49.090%  C  5 s( 26.23%)p 2.80( 73.55%)d 0.01(  0.21%)
                           0.338%  C  6 s(  2.44%)p38.27( 93.35%)d 1.73(  4.21%)
                           0.215%  C  7 s(  5.57%)p13.29( 73.99%)d 3.67( 20.45%)
                           0.034%  C  8 s( 37.13%)p 1.43( 52.98%)d 0.27(  9.89%)
                           0.035%  C  9 s( 37.06%)p 1.43( 53.07%)d 0.27(  9.87%)
                           0.215%  C 10 s(  5.55%)p13.35( 74.01%)d 3.69( 20.45%)
                           0.199%  H 13 s( 97.09%)p 0.03(  2.91%)
                           0.199%  H 14 s( 97.10%)p 0.03(  2.90%)
                           0.101%  H 15 s( 95.38%)p 0.05(  4.62%)
                           0.101%  H 18 s( 95.39%)p 0.05(  4.61%)
  11. (2.00000)  98.2923%  BD ( 1) C  4- C 10       
                           0.017%  C  1 s( 49.98%)p 0.94( 46.78%)d 0.06(  3.24%)
                           0.091%  C  2 s( 37.88%)p 1.56( 59.16%)d 0.08(  2.96%)
                           0.171%  C  3 s( 11.09%)p 6.99( 77.46%)d 1.03( 11.45%)
                          49.770%  C  4 s( 26.70%)p 2.74( 73.19%)d 0.00(  0.10%)
                           0.249%  C  5 s(  6.47%)p13.44( 86.91%)d 1.02(  6.62%)
                           0.200%  C  6 s( 35.92%)p 1.76( 63.29%)d 0.02(  0.79%)
                           0.088%  C  7 s( 13.15%)p 4.99( 65.58%)d 1.62( 21.26%)
                           0.289%  C  8 s(  2.30%)p41.70( 95.84%)d 0.81(  1.87%)
                           0.330%  C  9 s(  0.56%)p99.99( 93.71%)d10.22(  5.73%)
                          48.635%  C 10 s( 23.92%)p 3.17( 75.80%)d 0.01(  0.29%)
                           0.036%  H 13 s( 96.85%)p 0.03(  3.15%)
                           0.052%  H 15 s( 99.23%)p 0.01(  0.77%)
                           0.017%  H 16 s( 98.07%)p 0.02(  1.93%)
                           0.032%  H 18 s( 35.06%)p 1.85( 64.94%)
  12. (2.00000)  98.9454%  BD ( 1) C  5- C  6       
                           0.270%  C  1 s(  0.25%)p99.99( 95.60%)d16.54(  4.15%)
                           0.160%  C  4 s(  1.76%)p49.90( 88.01%)d 5.80( 10.23%)
                          50.838%  C  5 s( 34.39%)p 1.90( 65.50%)d 0.00(  0.11%)
                          48.315%  C  6 s( 30.96%)p 2.22( 68.85%)d 0.01(  0.18%)
                           0.096%  C  7 s( 13.27%)p 4.96( 65.84%)d 1.58( 20.90%)
                           0.018%  C  8 s(  6.33%)p14.46( 91.47%)d 0.35(  2.20%)
                           0.064%  C 10 s( 27.47%)p 2.17( 59.54%)d 0.47( 12.99%)
                           0.129%  H 11 s( 95.61%)p 0.05(  4.39%)
                           0.075%  H 14 s( 42.09%)p 1.38( 57.91%)
  13. (2.00000)  81.9668%  BD ( 2) C  5- C  6       
                           4.292%  C  1 s(  0.00%)p 1.00( 99.39%)d 0.01(  0.61%)
                           4.047%  C  2 s(  0.00%)p 1.00( 99.90%)d 0.00(  0.10%)
                           3.254%  C  3 s(  0.00%)p 1.00( 99.80%)d 0.00(  0.20%)
                           5.597%  C  4 s(  0.00%)p 1.00( 99.34%)d 0.01(  0.66%)
                          41.753%  C  5 s(  0.02%)p99.99( 99.91%)d 3.29(  0.07%)
                          40.225%  C  6 s(  0.00%)p 1.00( 99.93%)d 0.00(  0.07%)
                           0.276%  C  7 s(  1.44%)p63.43( 91.54%)d 4.86(  7.02%)
                           0.223%  C  8 s( 35.51%)p 1.78( 63.27%)d 0.03(  1.22%)
                           0.086%  C  9 s( 17.76%)p 4.56( 80.99%)d 0.07(  1.25%)
                           0.085%  C 10 s(  8.69%)p 9.59( 83.34%)d 0.92(  7.97%)
                           0.122%  H 15 s( 98.48%)p 0.02(  1.52%)
                           0.021%  H 18 s( 98.35%)p 0.02(  1.65%)
  14. (2.00000)  98.2932%  BD ( 1) C  5- C  7       
                           0.091%  C  1 s( 37.85%)p 1.56( 59.19%)d 0.08(  2.96%)
                           0.017%  C  2 s( 49.95%)p 0.94( 46.80%)d 0.07(  3.25%)
                           0.200%  C  3 s( 35.90%)p 1.76( 63.31%)d 0.02(  0.79%)
                           0.248%  C  4 s(  6.60%)p13.15( 86.76%)d 1.01(  6.64%)
                          49.766%  C  5 s( 26.70%)p 2.74( 73.20%)d 0.00(  0.10%)
                           0.171%  C  6 s( 11.04%)p 7.02( 77.50%)d 1.04( 11.46%)
                          48.641%  C  7 s( 23.92%)p 3.17( 75.80%)d 0.01(  0.29%)
                           0.330%  C  8 s(  0.56%)p99.99( 93.71%)d10.21(  5.73%)
                           0.289%  C  9 s(  2.28%)p41.99( 95.85%)d 0.82(  1.86%)
                           0.088%  C 10 s( 13.22%)p 4.96( 65.56%)d 1.60( 21.22%)
                           0.036%  H 14 s( 96.84%)p 0.03(  3.16%)
                           0.032%  H 15 s( 35.01%)p 1.86( 64.99%)
                           0.017%  H 17 s( 98.07%)p 0.02(  1.93%)
                           0.052%  H 18 s( 99.23%)p 0.01(  0.77%)
  15. (2.00000)  99.1054%  BD ( 1) C  6- H 14       
                           0.203%  C  1 s(  1.19%)p80.36( 95.77%)d 2.55(  3.04%)
                           0.145%  C  2 s( 37.28%)p 1.64( 61.23%)d 0.04(  1.50%)
                           0.011%  C  3 s( 44.67%)p 1.22( 54.33%)d 0.02(  1.00%)
                           0.153%  C  4 s( 30.59%)p 2.21( 67.67%)d 0.06(  1.74%)
                           0.235%  C  5 s(  1.47%)p64.27( 94.64%)d 2.64(  3.89%)
                          61.577%  C  6 s( 27.38%)p 2.65( 72.55%)d 0.00(  0.07%)
                           0.027%  C  7 s( 37.14%)p 1.58( 58.62%)d 0.11(  4.24%)
                           0.045%  H 11 s( 97.09%)p 0.03(  2.91%)
                          37.576%  H 14 s( 99.84%)p 0.00(  0.16%)
  16. (2.00000)  98.2869%  BD ( 1) C  7- C  8       
                           0.053%  C  2 s(  0.20%)p99.99( 99.70%)d 0.48(  0.10%)
                           0.010%  C  3 s( 38.37%)p 1.49( 57.06%)d 0.12(  4.57%)
                           0.121%  C  4 s(  2.62%)p35.29( 92.41%)d 1.90(  4.97%)
                           0.403%  C  5 s(  0.47%)p99.99( 90.33%)d19.39(  9.19%)
                           0.120%  C  6 s(  1.57%)p62.07( 97.37%)d 0.68(  1.06%)
                          50.759%  C  7 s( 24.03%)p 3.15( 75.73%)d 0.01(  0.23%)
                          47.587%  C  8 s( 27.02%)p 2.69( 72.73%)d 0.01(  0.25%)
                           0.328%  C  9 s(  4.38%)p20.48( 89.77%)d 1.33(  5.84%)
                           0.113%  C 10 s( 11.98%)p 5.85( 70.11%)d 1.49( 17.91%)
                           0.036%  H 15 s( 34.42%)p 1.90( 65.58%)
                           0.032%  H 16 s( 10.37%)p 8.64( 89.63%)
                           0.359%  H 17 s( 99.48%)p 0.01(  0.52%)
                           0.071%  H 18 s( 99.41%)p 0.01(  0.59%)
  17. (2.00000)  97.3684%  BD ( 1) C  7- C 10       
                           0.014%  C  1 s( 16.29%)p 5.03( 81.86%)d 0.11(  1.85%)
                           0.014%  C  2 s( 16.26%)p 5.04( 81.89%)d 0.11(  1.85%)
                           0.294%  C  3 s( 39.93%)p 1.48( 59.09%)d 0.02(  0.98%)
                           0.339%  C  4 s( 25.72%)p 2.51( 64.57%)d 0.38(  9.71%)
                           0.340%  C  5 s( 25.66%)p 2.52( 64.63%)d 0.38(  9.71%)
                           0.294%  C  6 s( 39.93%)p 1.48( 59.09%)d 0.02(  0.98%)
                          48.725%  C  7 s( 17.32%)p 4.75( 82.27%)d 0.02(  0.41%)
                           0.267%  C  8 s( 19.14%)p 3.75( 71.83%)d 0.47(  9.04%)
                           0.267%  C  9 s( 19.13%)p 3.75( 71.83%)d 0.47(  9.04%)
                          48.725%  C 10 s( 17.34%)p 4.74( 82.26%)d 0.02(  0.41%)
                           0.018%  H 15 s( 30.31%)p 2.30( 69.69%)
                           0.335%  H 16 s( 99.69%)p 0.00(  0.31%)
                           0.335%  H 17 s( 99.69%)p 0.00(  0.31%)
                           0.018%  H 18 s( 30.21%)p 2.31( 69.79%)
  18. (2.00000)  98.9339%  BD ( 1) C  7- H 15       
                           0.033%  C  2 s(  1.52%)p64.51( 98.27%)d 0.14(  0.21%)
                           0.122%  C  4 s(  8.32%)p10.22( 85.02%)d 0.80(  6.67%)
                           0.253%  C  5 s(  0.28%)p99.99( 93.94%)d20.29(  5.78%)
                           0.071%  C  6 s(  0.25%)p99.99( 98.97%)d 3.05(  0.78%)
                          62.364%  C  7 s( 27.33%)p 2.66( 72.58%)d 0.00(  0.09%)
                           0.237%  C  8 s(  0.30%)p99.99( 94.34%)d17.97(  5.36%)
                           0.230%  C  9 s(  6.58%)p13.72( 90.36%)d 0.46(  3.06%)
                           0.054%  C 10 s(  6.73%)p 7.76( 52.25%)d 6.10( 41.02%)
                          36.573%  H 15 s( 99.84%)p 0.00(  0.16%)
                           0.030%  H 17 s( 98.79%)p 0.01(  1.21%)
  19. (2.00000)  99.1179%  BD ( 1) C  8- C  9       
                           0.041%  C  4 s( 23.26%)p 2.65( 61.61%)d 0.65( 15.13%)
                           0.041%  C  5 s( 23.20%)p 2.65( 61.60%)d 0.65( 15.19%)
                           0.189%  C  7 s(  7.03%)p 9.54( 67.07%)d 3.68( 25.90%)
                          49.618%  C  8 s( 33.13%)p 2.01( 66.62%)d 0.01(  0.25%)
                          49.622%  C  9 s( 33.13%)p 2.01( 66.62%)d 0.01(  0.25%)
                           0.190%  C 10 s(  7.01%)p 9.58( 67.11%)d 3.69( 25.88%)
                           0.075%  H 15 s( 97.78%)p 0.02(  2.22%)
                           0.067%  H 16 s( 47.22%)p 1.12( 52.78%)
                           0.067%  H 17 s( 47.26%)p 1.12( 52.74%)
                           0.075%  H 18 s( 97.78%)p 0.02(  2.22%)
  20. (2.00000)  97.2485%  BD ( 2) C  8- C  9       
                           0.018%  C  1 s( 19.00%)p 4.20( 79.89%)d 0.06(  1.11%)
                           0.018%  C  2 s( 19.00%)p 4.20( 79.88%)d 0.06(  1.11%)
                           0.061%  C  3 s(  3.20%)p29.84( 95.61%)d 0.37(  1.18%)
                           0.412%  C  4 s( 37.54%)p 1.62( 60.77%)d 0.05(  1.69%)
                           0.412%  C  5 s( 37.49%)p 1.62( 60.81%)d 0.05(  1.69%)
                           0.061%  C  6 s(  3.19%)p29.96( 95.63%)d 0.37(  1.18%)
                           0.586%  C  7 s(  3.41%)p26.31( 89.63%)d 2.04(  6.96%)
                          48.627%  C  8 s(  0.01%)p 1.00( 99.82%)d 0.00(  0.17%)
                          48.625%  C  9 s(  0.01%)p 1.00( 99.83%)d 0.00(  0.17%)
                           0.587%  C 10 s(  3.41%)p26.29( 89.63%)d 2.04(  6.96%)
                           0.274%  H 15 s( 99.13%)p 0.01(  0.87%)
                           0.013%  H 16 s(  9.47%)p 9.56( 90.53%)
                           0.013%  H 17 s(  9.34%)p 9.71( 90.66%)
                           0.274%  H 18 s( 99.13%)p 0.01(  0.87%)
  21. (2.00000)  99.6398%  BD ( 1) C  8- H 16       
                           0.015%  C  4 s(  9.62%)p 8.55( 82.24%)d 0.85(  8.14%)
                           0.019%  C  5 s(  2.27%)p38.96( 88.31%)d 4.16(  9.42%)
                           0.050%  C  7 s(  1.93%)p29.05( 56.07%)d21.76( 42.00%)
                          61.806%  C  8 s( 32.91%)p 2.04( 67.01%)d 0.00(  0.07%)
                           0.117%  C  9 s(  2.50%)p35.72( 89.27%)d 3.29(  8.23%)
                           0.092%  C 10 s( 44.67%)p 1.00( 44.51%)d 0.24( 10.81%)
                          37.861%  H 16 s( 99.84%)p 0.00(  0.16%)
                           0.018%  H 18 s( 99.19%)p 0.01(  0.81%)
  22. (2.00000)  98.2892%  BD ( 1) C  9- C 10       
                           0.053%  C  1 s(  0.20%)p99.99( 99.70%)d 0.48(  0.10%)
                           0.119%  C  3 s(  1.59%)p61.26( 97.34%)d 0.68(  1.07%)
                           0.401%  C  4 s(  0.48%)p99.99( 90.30%)d19.28(  9.22%)
                           0.121%  C  5 s(  2.57%)p35.91( 92.44%)d 1.94(  4.98%)
                           0.010%  C  6 s( 38.65%)p 1.47( 56.75%)d 0.12(  4.60%)
                           0.114%  C  7 s( 12.27%)p 5.70( 69.91%)d 1.45( 17.82%)
                           0.328%  C  8 s(  4.51%)p19.89( 89.64%)d 1.30(  5.85%)
                          47.587%  C  9 s( 27.02%)p 2.69( 72.73%)d 0.01(  0.25%)
                          50.762%  C 10 s( 24.04%)p 3.15( 75.72%)d 0.01(  0.23%)
                           0.071%  H 15 s( 99.41%)p 0.01(  0.59%)
                           0.359%  H 16 s( 99.48%)p 0.01(  0.52%)
                           0.032%  H 17 s( 10.36%)p 8.66( 89.64%)
                           0.036%  H 18 s( 34.41%)p 1.91( 65.59%)
  23. (2.00000)  99.6398%  BD ( 1) C  9- H 17       
                           0.019%  C  4 s(  2.27%)p38.83( 88.31%)d 4.14(  9.42%)
                           0.015%  C  5 s(  9.57%)p 8.60( 82.27%)d 0.85(  8.16%)
                           0.092%  C  7 s( 44.75%)p 0.99( 44.46%)d 0.24( 10.79%)
                           0.117%  C  8 s(  2.32%)p38.48( 89.39%)d 3.57(  8.29%)
                          61.806%  C  9 s( 32.91%)p 2.04( 67.02%)d 0.00(  0.07%)
                           0.050%  C 10 s(  1.94%)p28.99( 56.11%)d21.68( 41.95%)
                           0.018%  H 15 s( 99.19%)p 0.01(  0.81%)
                          37.861%  H 17 s( 99.84%)p 0.00(  0.16%)
  24. (2.00000)  98.9345%  BD ( 1) C 10- H 18       
                           0.033%  C  1 s(  1.53%)p64.16( 98.26%)d 0.14(  0.21%)
                           0.071%  C  3 s(  0.26%)p99.99( 98.96%)d 2.97(  0.78%)
                           0.252%  C  4 s(  0.29%)p99.99( 93.92%)d20.15(  5.79%)
                           0.122%  C  5 s(  8.32%)p10.21( 84.98%)d 0.80(  6.70%)
                           0.055%  C  7 s(  6.92%)p 7.56( 52.37%)d 5.88( 40.71%)
                           0.230%  C  8 s(  6.56%)p13.78( 90.38%)d 0.47(  3.06%)
                           0.237%  C  9 s(  0.30%)p99.99( 94.35%)d17.99(  5.36%)
                          62.365%  C 10 s( 27.31%)p 2.66( 72.60%)d 0.00(  0.09%)
                           0.030%  H 16 s( 98.78%)p 0.01(  1.22%)
                          36.572%  H 18 s( 99.84%)p 0.00(  0.16%)
  25. (2.00000)  99.9515%  CR ( 1) C  1             
                          99.956%  C  1 s(100.00%)p 0.00(  0.00%)d 0.00(  0.00%)
                           0.018%  C  2 s( 17.32%)p 4.49( 77.84%)d 0.28(  4.84%)
                           0.016%  C  6 s( 17.61%)p 4.38( 77.18%)d 0.30(  5.21%)
  26. (2.00000)  99.9514%  CR ( 1) C  2             
                           0.018%  C  1 s( 17.33%)p 4.49( 77.83%)d 0.28(  4.84%)
                          99.956%  C  2 s(100.00%)p 0.00(  0.00%)d 0.00(  0.00%)
                           0.016%  C  3 s( 17.62%)p 4.38( 77.17%)d 0.30(  5.21%)
  27. (2.00000)  99.9423%  CR ( 1) C  3             
                           0.016%  C  2 s( 18.63%)p 4.09( 76.16%)d 0.28(  5.21%)
                          99.948%  C  3 s( 99.99%)p 0.00(  0.00%)d 0.00(  0.00%)
                           0.024%  C  4 s( 17.03%)p 4.66( 79.39%)d 0.21(  3.58%)
  28. (2.00000)  99.9378%  CR ( 1) C  4             
                           0.014%  C  3 s( 17.34%)p 4.41( 76.39%)d 0.36(  6.27%)
                          99.945%  C  4 s( 99.99%)p 0.00(  0.00%)d 0.00(  0.00%)
                           0.022%  C  5 s( 12.42%)p 6.72( 83.51%)d 0.33(  4.06%)
                           0.011%  C 10 s( 11.57%)p 6.84( 79.16%)d 0.80(  9.27%)
  29. (2.00000)  99.9378%  CR ( 1) C  5             
                           0.022%  C  4 s( 12.42%)p 6.72( 83.51%)d 0.33(  4.07%)
                          99.945%  C  5 s( 99.99%)p 0.00(  0.00%)d 0.00(  0.00%)
                           0.014%  C  6 s( 17.33%)p 4.41( 76.40%)d 0.36(  6.27%)
                           0.011%  C  7 s( 11.55%)p 6.85( 79.17%)d 0.80(  9.27%)
  30. (2.00000)  99.9423%  CR ( 1) C  6             
                           0.016%  C  1 s( 18.62%)p 4.09( 76.17%)d 0.28(  5.21%)
                           0.024%  C  5 s( 17.02%)p 4.66( 79.40%)d 0.21(  3.58%)
                          99.948%  C  6 s( 99.99%)p 0.00(  0.00%)d 0.00(  0.00%)
  31. (2.00000)  99.9537%  CR ( 1) C  7             
                           0.013%  C  5 s( 17.15%)p 4.59( 78.71%)d 0.24(  4.14%)
                          99.961%  C  7 s( 99.99%)p 0.00(  0.01%)d 0.00(  0.00%)
  32. (2.00000)  99.9433%  CR ( 1) C  8             
                           0.012%  C  7 s( 10.50%)p 7.89( 82.89%)d 0.63(  6.60%)
                          99.952%  C  8 s( 99.99%)p 0.00(  0.01%)d 0.00(  0.00%)
                           0.022%  C  9 s( 14.37%)p 5.60( 80.48%)d 0.36(  5.15%)
  33. (2.00000)  99.9433%  CR ( 1) C  9             
                           0.022%  C  8 s( 14.37%)p 5.60( 80.48%)d 0.36(  5.15%)
                          99.952%  C  9 s( 99.99%)p 0.00(  0.01%)d 0.00(  0.00%)
                           0.012%  C 10 s( 10.50%)p 7.89( 82.89%)d 0.63(  6.60%)
  34. (2.00000)  99.9537%  CR ( 1) C 10             
                           0.013%  C  4 s( 17.16%)p 4.59( 78.69%)d 0.24(  4.14%)
                          99.961%  C 10 s( 99.99%)p 0.00(  0.01%)d 0.00(  0.00%)

 *******************************************************************************
Grid information in Angstroms:
 x:        101  min =  -6.000000 max =   6.000000
 y:        101  min =  -6.000000 max =   6.000000
 z:         68  min =  -4.000000 max =   4.000000
 Plotting NBOs for the following states:  0
 Range of NBOs for each state:  8
 Created directory /scratch/483103/qchem2570605/plots
 Total job time:  61.95s(wall), 473.49s(cpu) 
 Wed Jun 17 18:30:20 2026

        *************************************************************
        *                                                           *
        *  Thank you very much for using Q-Chem.  Have a nice day.  *
        *                                                           *
        *************************************************************


