[Molden Format]
[Atoms] Angs
 c       1                    6  2.401032261022e+00 -5.834367152463e-01  7.562686378775e-01
 c       2                    6  2.210694332205e+00  8.366630701941e-01  9.184248303148e-01
 c       3                    6  9.813236535675e-01  1.423923011788e+00  6.311308489402e-01
 n       4                    7 -5.992347387022e-02  5.985127327835e-01  3.226205104742e-01
 b       5                    5 -4.509325722425e-03 -8.506790338721e-01  2.995102641249e-01
 c       6                    6  1.355792355412e+00 -1.481797483902e+00  5.094963448202e-01
 c       7                    6 -1.269746618149e+00 -1.005504872721e+00 -6.843422909295e-01
 c       8                    6 -2.707663083658e+00 -5.773389543599e-01 -4.100210772504e-01
 c       9                    6 -2.487111807114e+00  7.682716982362e-01 -5.231225605314e-01
 c      10                    6 -1.022860211421e+00  5.803652182248e-01 -8.300467001053e-01
 h      11                    1  3.437716650128e+00 -9.450952280893e-01  7.730167497465e-01
 h      12                    1  3.063657916125e+00  1.472748433600e+00  1.163750053301e+00
 h      13                    1  8.314959020094e-01  2.509866013399e+00  6.168218255415e-01
 h      14                    1  1.603349122129e+00 -2.530520006105e+00  3.124947330475e-01
 h      15                    1 -1.087412581317e+00 -1.677496170139e+00 -1.530981512721e+00
 h      16                    1 -3.615179773921e+00 -1.164535319252e+00 -2.199050814150e-01
 h      17                    1 -3.081622551736e+00  1.672891669615e+00 -3.590552126525e-01
 h      18                    1 -5.490327656879e-01  9.531619358471e-01 -1.746060362581e+00
[GTO]
1
 s           8
      6.665000000000e+03      6.915839628130e-04
      1.000000000000e+03      5.325796152934e-03
      2.280000000000e+02      2.706072104203e-02
      6.471000000000e+01      1.016568461408e-01
      2.106000000000e+01      2.745748236174e-01
      7.495000000000e+00      4.482943189238e-01
      2.797000000000e+00      2.849026107152e-01
      5.215000000000e-01      1.519485920608e-02
 s           8
      6.665000000000e+03     -2.932696526865e-04
      1.000000000000e+03     -2.318035473975e-03
      2.280000000000e+02     -1.149978603857e-02
      6.471000000000e+01     -4.682672700979e-02
      2.106000000000e+01     -1.284661687505e-01
      7.495000000000e+00     -3.012662724629e-01
      2.797000000000e+00     -2.556307023301e-01
      5.215000000000e-01      1.093793361012e+00
 s           1
      1.596000000000e-01      1.000000000000e+00
 s           1
      4.690000000000e-02      1.000000000000e+00
 p           3
      9.439000000000e+00      5.697925159004e-02
      2.002000000000e+00      3.132072115007e-01
      5.456000000000e-01      7.603767417375e-01
 p           1
      1.517000000000e-01      1.000000000000e+00
 p           1
      4.041000000000e-02      1.000000000000e+00
 d           1
      5.500000000000e-01      1.000000000000e+00
 d           1
      1.510000000000e-01      1.000000000000e+00

2
 s           8
      6.665000000000e+03      6.915839628130e-04
      1.000000000000e+03      5.325796152934e-03
      2.280000000000e+02      2.706072104203e-02
      6.471000000000e+01      1.016568461408e-01
      2.106000000000e+01      2.745748236174e-01
      7.495000000000e+00      4.482943189238e-01
      2.797000000000e+00      2.849026107152e-01
      5.215000000000e-01      1.519485920608e-02
 s           8
      6.665000000000e+03     -2.932696526865e-04
      1.000000000000e+03     -2.318035473975e-03
      2.280000000000e+02     -1.149978603857e-02
      6.471000000000e+01     -4.682672700979e-02
      2.106000000000e+01     -1.284661687505e-01
      7.495000000000e+00     -3.012662724629e-01
      2.797000000000e+00     -2.556307023301e-01
      5.215000000000e-01      1.093793361012e+00
 s           1
      1.596000000000e-01      1.000000000000e+00
 s           1
      4.690000000000e-02      1.000000000000e+00
 p           3
      9.439000000000e+00      5.697925159004e-02
      2.002000000000e+00      3.132072115007e-01
      5.456000000000e-01      7.603767417375e-01
 p           1
      1.517000000000e-01      1.000000000000e+00
 p           1
      4.041000000000e-02      1.000000000000e+00
 d           1
      5.500000000000e-01      1.000000000000e+00
 d           1
      1.510000000000e-01      1.000000000000e+00

3
 s           8
      6.665000000000e+03      6.915839628130e-04
      1.000000000000e+03      5.325796152934e-03
      2.280000000000e+02      2.706072104203e-02
      6.471000000000e+01      1.016568461408e-01
      2.106000000000e+01      2.745748236174e-01
      7.495000000000e+00      4.482943189238e-01
      2.797000000000e+00      2.849026107152e-01
      5.215000000000e-01      1.519485920608e-02
 s           8
      6.665000000000e+03     -2.932696526865e-04
      1.000000000000e+03     -2.318035473975e-03
      2.280000000000e+02     -1.149978603857e-02
      6.471000000000e+01     -4.682672700979e-02
      2.106000000000e+01     -1.284661687505e-01
      7.495000000000e+00     -3.012662724629e-01
      2.797000000000e+00     -2.556307023301e-01
      5.215000000000e-01      1.093793361012e+00
 s           1
      1.596000000000e-01      1.000000000000e+00
 s           1
      4.690000000000e-02      1.000000000000e+00
 p           3
      9.439000000000e+00      5.697925159004e-02
      2.002000000000e+00      3.132072115007e-01
      5.456000000000e-01      7.603767417375e-01
 p           1
      1.517000000000e-01      1.000000000000e+00
 p           1
      4.041000000000e-02      1.000000000000e+00
 d           1
      5.500000000000e-01      1.000000000000e+00
 d           1
      1.510000000000e-01      1.000000000000e+00

4
 s           8
      9.046000000000e+03      6.996174134255e-04
      1.357000000000e+03      5.386054629929e-03
      3.093000000000e+02      2.739102118906e-02
      8.773000000000e+01      1.031505919820e-01
      2.856000000000e+01      2.785706633174e-01
      1.021000000000e+01      4.482948494541e-01
      3.838000000000e+00      2.780859283953e-01
      7.466000000000e-01      1.543156123327e-02
 s           8
      9.046000000000e+03     -3.049900959534e-04
      1.357000000000e+03     -2.408026378508e-03
      3.093000000000e+02     -1.194444872518e-02
      8.773000000000e+01     -4.892599290902e-02
      2.856000000000e+01     -1.344727247250e-01
      1.021000000000e+01     -3.151125777001e-01
      3.838000000000e+00     -2.428578325496e-01
      7.466000000000e-01      1.094382206854e+00
 s           1
      2.248000000000e-01      1.000000000000e+00
 s           1
      6.124000000000e-02      1.000000000000e+00
 p           3
      1.355000000000e+01      5.890567677213e-02
      2.917000000000e+00      3.204611067143e-01
      7.973000000000e-01      7.530420617921e-01
 p           1
      2.185000000000e-01      1.000000000000e+00
 p           1
      5.611000000000e-02      1.000000000000e+00
 d           1
      8.170000000000e-01      1.000000000000e+00
 d           1
      2.300000000000e-01      1.000000000000e+00

5
 s           8
      4.570000000000e+03      6.955544180306e-04
      6.859000000000e+02      5.349572988100e-03
      1.565000000000e+02      2.711662870523e-02
      4.447000000000e+01      1.013150961206e-01
      1.448000000000e+01      2.718808293065e-01
      5.131000000000e+00      4.481159306152e-01
      1.898000000000e+00      2.899372621010e-01
      3.329000000000e-01      1.431283099861e-02
 s           8
      4.570000000000e+03     -2.812802240142e-04
      6.859000000000e+02     -2.219887811105e-03
      1.565000000000e+02     -1.101647150743e-02
      4.447000000000e+01     -4.434918985248e-02
      1.448000000000e+01     -1.209120479502e-01
      5.131000000000e+00     -2.807378995535e-01
      1.898000000000e+00     -2.660668087326e-01
      3.329000000000e-01      1.091784130514e+00
 s           1
      1.043000000000e-01      1.000000000000e+00
 s           1
      3.105000000000e-02      1.000000000000e+00
 p           3
      6.001000000000e+00      5.416586334015e-02
      1.241000000000e+00      3.023798901809e-01
      3.364000000000e-01      7.712922165481e-01
 p           1
      9.538000000000e-02      1.000000000000e+00
 p           1
      2.378000000000e-02      1.000000000000e+00
 d           1
      3.430000000000e-01      1.000000000000e+00
 d           1
      9.040000000000e-02      1.000000000000e+00

6
 s           8
      6.665000000000e+03      6.915839628130e-04
      1.000000000000e+03      5.325796152934e-03
      2.280000000000e+02      2.706072104203e-02
      6.471000000000e+01      1.016568461408e-01
      2.106000000000e+01      2.745748236174e-01
      7.495000000000e+00      4.482943189238e-01
      2.797000000000e+00      2.849026107152e-01
      5.215000000000e-01      1.519485920608e-02
 s           8
      6.665000000000e+03     -2.932696526865e-04
      1.000000000000e+03     -2.318035473975e-03
      2.280000000000e+02     -1.149978603857e-02
      6.471000000000e+01     -4.682672700979e-02
      2.106000000000e+01     -1.284661687505e-01
      7.495000000000e+00     -3.012662724629e-01
      2.797000000000e+00     -2.556307023301e-01
      5.215000000000e-01      1.093793361012e+00
 s           1
      1.596000000000e-01      1.000000000000e+00
 s           1
      4.690000000000e-02      1.000000000000e+00
 p           3
      9.439000000000e+00      5.697925159004e-02
      2.002000000000e+00      3.132072115007e-01
      5.456000000000e-01      7.603767417375e-01
 p           1
      1.517000000000e-01      1.000000000000e+00
 p           1
      4.041000000000e-02      1.000000000000e+00
 d           1
      5.500000000000e-01      1.000000000000e+00
 d           1
      1.510000000000e-01      1.000000000000e+00

7
 s           8
      6.665000000000e+03      6.915839628130e-04
      1.000000000000e+03      5.325796152934e-03
      2.280000000000e+02      2.706072104203e-02
      6.471000000000e+01      1.016568461408e-01
      2.106000000000e+01      2.745748236174e-01
      7.495000000000e+00      4.482943189238e-01
      2.797000000000e+00      2.849026107152e-01
      5.215000000000e-01      1.519485920608e-02
 s           8
      6.665000000000e+03     -2.932696526865e-04
      1.000000000000e+03     -2.318035473975e-03
      2.280000000000e+02     -1.149978603857e-02
      6.471000000000e+01     -4.682672700979e-02
      2.106000000000e+01     -1.284661687505e-01
      7.495000000000e+00     -3.012662724629e-01
      2.797000000000e+00     -2.556307023301e-01
      5.215000000000e-01      1.093793361012e+00
 s           1
      1.596000000000e-01      1.000000000000e+00
 s           1
      4.690000000000e-02      1.000000000000e+00
 p           3
      9.439000000000e+00      5.697925159004e-02
      2.002000000000e+00      3.132072115007e-01
      5.456000000000e-01      7.603767417375e-01
 p           1
      1.517000000000e-01      1.000000000000e+00
 p           1
      4.041000000000e-02      1.000000000000e+00
 d           1
      5.500000000000e-01      1.000000000000e+00
 d           1
      1.510000000000e-01      1.000000000000e+00

8
 s           8
      6.665000000000e+03      6.915839628130e-04
      1.000000000000e+03      5.325796152934e-03
      2.280000000000e+02      2.706072104203e-02
      6.471000000000e+01      1.016568461408e-01
      2.106000000000e+01      2.745748236174e-01
      7.495000000000e+00      4.482943189238e-01
      2.797000000000e+00      2.849026107152e-01
      5.215000000000e-01      1.519485920608e-02
 s           8
      6.665000000000e+03     -2.932696526865e-04
      1.000000000000e+03     -2.318035473975e-03
      2.280000000000e+02     -1.149978603857e-02
      6.471000000000e+01     -4.682672700979e-02
      2.106000000000e+01     -1.284661687505e-01
      7.495000000000e+00     -3.012662724629e-01
      2.797000000000e+00     -2.556307023301e-01
      5.215000000000e-01      1.093793361012e+00
 s           1
      1.596000000000e-01      1.000000000000e+00
 s           1
      4.690000000000e-02      1.000000000000e+00
 p           3
      9.439000000000e+00      5.697925159004e-02
      2.002000000000e+00      3.132072115007e-01
      5.456000000000e-01      7.603767417375e-01
 p           1
      1.517000000000e-01      1.000000000000e+00
 p           1
      4.041000000000e-02      1.000000000000e+00
 d           1
      5.500000000000e-01      1.000000000000e+00
 d           1
      1.510000000000e-01      1.000000000000e+00

9
 s           8
      6.665000000000e+03      6.915839628130e-04
      1.000000000000e+03      5.325796152934e-03
      2.280000000000e+02      2.706072104203e-02
      6.471000000000e+01      1.016568461408e-01
      2.106000000000e+01      2.745748236174e-01
      7.495000000000e+00      4.482943189238e-01
      2.797000000000e+00      2.849026107152e-01
      5.215000000000e-01      1.519485920608e-02
 s           8
      6.665000000000e+03     -2.932696526865e-04
      1.000000000000e+03     -2.318035473975e-03
      2.280000000000e+02     -1.149978603857e-02
      6.471000000000e+01     -4.682672700979e-02
      2.106000000000e+01     -1.284661687505e-01
      7.495000000000e+00     -3.012662724629e-01
      2.797000000000e+00     -2.556307023301e-01
      5.215000000000e-01      1.093793361012e+00
 s           1
      1.596000000000e-01      1.000000000000e+00
 s           1
      4.690000000000e-02      1.000000000000e+00
 p           3
      9.439000000000e+00      5.697925159004e-02
      2.002000000000e+00      3.132072115007e-01
      5.456000000000e-01      7.603767417375e-01
 p           1
      1.517000000000e-01      1.000000000000e+00
 p           1
      4.041000000000e-02      1.000000000000e+00
 d           1
      5.500000000000e-01      1.000000000000e+00
 d           1
      1.510000000000e-01      1.000000000000e+00

10
 s           8
      6.665000000000e+03      6.915839628130e-04
      1.000000000000e+03      5.325796152934e-03
      2.280000000000e+02      2.706072104203e-02
      6.471000000000e+01      1.016568461408e-01
      2.106000000000e+01      2.745748236174e-01
      7.495000000000e+00      4.482943189238e-01
      2.797000000000e+00      2.849026107152e-01
      5.215000000000e-01      1.519485920608e-02
 s           8
      6.665000000000e+03     -2.932696526865e-04
      1.000000000000e+03     -2.318035473975e-03
      2.280000000000e+02     -1.149978603857e-02
      6.471000000000e+01     -4.682672700979e-02
      2.106000000000e+01     -1.284661687505e-01
      7.495000000000e+00     -3.012662724629e-01
      2.797000000000e+00     -2.556307023301e-01
      5.215000000000e-01      1.093793361012e+00
 s           1
      1.596000000000e-01      1.000000000000e+00
 s           1
      4.690000000000e-02      1.000000000000e+00
 p           3
      9.439000000000e+00      5.697925159004e-02
      2.002000000000e+00      3.132072115007e-01
      5.456000000000e-01      7.603767417375e-01
 p           1
      1.517000000000e-01      1.000000000000e+00
 p           1
      4.041000000000e-02      1.000000000000e+00
 d           1
      5.500000000000e-01      1.000000000000e+00
 d           1
      1.510000000000e-01      1.000000000000e+00

11
 s           3
      1.301000000000e+01      3.349872639000e-02
      1.962000000000e+00      2.348008011741e-01
      4.446000000000e-01      8.136829578829e-01
 s           1
      1.220000000000e-01      1.000000000000e+00
 s           1
      2.974000000000e-02      1.000000000000e+00
 p           1
      7.270000000000e-01      1.000000000000e+00
 p           1
      1.410000000000e-01      1.000000000000e+00

12
 s           3
      1.301000000000e+01      3.349872639000e-02
      1.962000000000e+00      2.348008011741e-01
      4.446000000000e-01      8.136829578829e-01
 s           1
      1.220000000000e-01      1.000000000000e+00
 s           1
      2.974000000000e-02      1.000000000000e+00
 p           1
      7.270000000000e-01      1.000000000000e+00
 p           1
      1.410000000000e-01      1.000000000000e+00

13
 s           3
      1.301000000000e+01      3.349872639000e-02
      1.962000000000e+00      2.348008011741e-01
      4.446000000000e-01      8.136829578829e-01
 s           1
      1.220000000000e-01      1.000000000000e+00
 s           1
      2.974000000000e-02      1.000000000000e+00
 p           1
      7.270000000000e-01      1.000000000000e+00
 p           1
      1.410000000000e-01      1.000000000000e+00

14
 s           3
      1.301000000000e+01      3.349872639000e-02
      1.962000000000e+00      2.348008011741e-01
      4.446000000000e-01      8.136829578829e-01
 s           1
      1.220000000000e-01      1.000000000000e+00
 s           1
      2.974000000000e-02      1.000000000000e+00
 p           1
      7.270000000000e-01      1.000000000000e+00
 p           1
      1.410000000000e-01      1.000000000000e+00

15
 s           3
      1.301000000000e+01      3.349872639000e-02
      1.962000000000e+00      2.348008011741e-01
      4.446000000000e-01      8.136829578829e-01
 s           1
      1.220000000000e-01      1.000000000000e+00
 s           1
      2.974000000000e-02      1.000000000000e+00
 p           1
      7.270000000000e-01      1.000000000000e+00
 p           1
      1.410000000000e-01      1.000000000000e+00

16
 s           3
      1.301000000000e+01      3.349872639000e-02
      1.962000000000e+00      2.348008011741e-01
      4.446000000000e-01      8.136829578829e-01
 s           1
      1.220000000000e-01      1.000000000000e+00
 s           1
      2.974000000000e-02      1.000000000000e+00
 p           1
      7.270000000000e-01      1.000000000000e+00
 p           1
      1.410000000000e-01      1.000000000000e+00

17
 s           3
      1.301000000000e+01      3.349872639000e-02
      1.962000000000e+00      2.348008011741e-01
      4.446000000000e-01      8.136829578829e-01
 s           1
      1.220000000000e-01      1.000000000000e+00
 s           1
      2.974000000000e-02      1.000000000000e+00
 p           1
      7.270000000000e-01      1.000000000000e+00
 p           1
      1.410000000000e-01      1.000000000000e+00

18
 s           3
      1.301000000000e+01      3.349872639000e-02
      1.962000000000e+00      2.348008011741e-01
      4.446000000000e-01      8.136829578829e-01
 s           1
      1.220000000000e-01      1.000000000000e+00
 s           1
      2.974000000000e-02      1.000000000000e+00
 p           1
      7.270000000000e-01      1.000000000000e+00
 p           1
      1.410000000000e-01      1.000000000000e+00


[5D]
[7F]
[9G]
[MO]
 Ene=  -15.591019
 Spin=  Alpha
 Occup=    2.000000
   1    -0.0000560201339501
   2    -0.0001069826728087
   3     0.0037708265687504
   4     0.0090362821493663
   5     0.0000111857195468
   6    -0.0000071665052167
   7    -0.0000071861365500
   8    -0.0006529690010299
   9     0.0061900045702132
  10     0.0007129192540706
  11    -0.0038586022603955
  12    -0.0036986879313292
  13    -0.0011647331488859
  14     0.0000082789909190
  15    -0.0000011335932291
  16     0.0000031421040823
  17    -0.0000262449030232
  18     0.0000278842413345
  19    -0.0000506657630608
  20    -0.0003628515619644
  21    -0.0001370815905904
  22    -0.0001379896118146
  23    -0.0020725797104233
  24    -0.0000113180816182
  25    -0.0000459386687625
  26     0.0060642363607044
  27    -0.0123986703914536
  28     0.0001238835115216
  29    -0.0000318590567070
  30    -0.0000140257262664
  31    -0.0035251408277466
  32     0.0080170860120853
  33    -0.0004890317807929
  34     0.0051244492953805
  35    -0.0017824400469797
  36     0.0010197044050140
  37    -0.0000203182222118
  38    -0.0000140050972769
  39     0.0000022011553829
  40    -0.0000897161685486
  41     0.0000148564511229
  42     0.0005601173440616
  43     0.0000758258267431
  44    -0.0008089675183099
  45     0.0021777123504580
  46    -0.0020803775243302
  47     0.0002955258014363
  48     0.0004496855315253
  49     0.0017092147656425
  50     0.0266909036513140
  51    -0.0002750878748962
  52    -0.0002092413901318
  53    -0.0001549173537240
  54    -0.0124344964322543
  55    -0.0047476200440414
  56    -0.0031480244908711
  57     0.0020298624124553
  58    -0.0050398767978021
  59     0.0002671433942385
  60    -0.0000344208926477
  61    -0.0000755437247400
  62    -0.0000944666786945
  63    -0.0001159308586617
  64    -0.0002563418989408
  65    -0.0009358544165361
  66     0.0001593915900485
  67     0.0013601720787957
  68    -0.0018352654079463
  69     0.0052233581634470
  70     1.0031724305530807
  71     0.0055679683727500
  72    -0.0271417061885530
  73    -0.0158170139469851
  74     0.0004764328460455
  75     0.0004535331836263
  76    -0.0006376005811414
  77    -0.0007217389246319
  78    -0.0023524082136972
  79     0.0024505380329270
  80    -0.0043693356669400
  81    -0.0021876038174518
  82    -0.0007514271770817
  83    -0.0001468941209990
  84     0.0001074029118991
  85     0.0001231813127263
  86    -0.0000242048988614
  87     0.0001851374240010
  88     0.0000407765614143
  89    -0.0019726581031379
  90    -0.0009749745699475
  91    -0.0011430391146298
  92    -0.0016409859578757
  93     0.0002649367498159
  94     0.0004861058850094
  95     0.0007639591476907
  96    -0.0039752150878009
  97    -0.0000627896878668
  98     0.0003185475271169
  99    -0.0001197044294164
 100     0.0016652139768377
 101    -0.0016040502959064
 102    -0.0001734281555101
 103    -0.0007478197530041
 104    -0.0002094849550130
 105    -0.0000738424206489
 106    -0.0000890950375844
 107     0.0000111751058489
 108    -0.0000744582567644
 109     0.0000698658074093
 110    -0.0000865373231928
 111     0.0004730316865940
 112     0.0002734773497325
 113    -0.0004258829467408
 114     0.0011671659441504
 115    -0.0007888623087980
 116     0.0000088229124351
 117    -0.0000117470792007
 118     0.0021555374211106
 119    -0.0111635066760433
 120     0.0000316921469544
 121    -0.0000404671902188
 122    -0.0000061769860746
 123     0.0030124991692928
 124     0.0007673877392477
 125     0.0004859088339772
 126    -0.0026725681308736
 127    -0.0016925844223060
 128    -0.0004856816100554
 129     0.0000563072507813
 130    -0.0000152900719494
 131     0.0000065443438759
 132    -0.0000011205885601
 133     0.0000589720642114
 134    -0.0001441771989836
 135     0.0002169590879308
 136     0.0000660005663656
 137     0.0009470496937426
 138     0.0005979653469794
 139     0.0000236503674863
 140     0.0000488921017170
 141    -0.0031421930844963
 142     0.0040333916873987
 143    -0.0000471487564491
 144    -0.0000849988701606
 145     0.0000229139452626
 146    -0.0012551289984191
 147    -0.0027614358532268
 148    -0.0015793963503204
 149     0.0006588674132423
 150     0.0008025296375904
 151     0.0000796787010822
 152    -0.0000011030453496
 153     0.0000553886099308
 154    -0.0000095601113101
 155     0.0000528450193819
 156    -0.0000066776531293
 157     0.0004403929483835
 158    -0.0002052188913015
 159    -0.0006175079716133
 160     0.0002255135475851
 161    -0.0006334694340595
 162     0.0000857316142511
 163     0.0001399750779011
 164    -0.0021855059331970
 165    -0.0019713187823581
 166     0.0000609884594680
 167    -0.0000326799666310
 168     0.0000004171349248
 169     0.0001017004145779
 170    -0.0012053777696002
 171     0.0004648850821179
 172    -0.0007937823044809
 173    -0.0006995419435750
 174    -0.0000832423355303
 175     0.0000604735110262
 176    -0.0000226859788538
 177    -0.0000274048219747
 178    -0.0000009974871118
 179    -0.0000319642953809
 180    -0.0000637616546103
 181    -0.0000267573451159
 182     0.0002765481271549
 183     0.0004220854779715
 184     0.0002348520574383
 185     0.0000526835792291
 186     0.0000781086443280
 187     0.0037890019873472
 188     0.0002060988529957
 189     0.0000114741245203
 190     0.0000065001766398
 191    -0.0000319256447516
 192    -0.0002173029089567
 193    -0.0015506646002940
 194    -0.0007205353099296
 195    -0.0003627488869379
 196    -0.0001002198324852
 197     0.0000681278406060
 198     0.0000858614124494
 199    -0.0000762506928946
 200    -0.0000072472673707
 201    -0.0001357839386764
 202     0.0000749023548964
 203    -0.0003003661163357
 204    -0.0001848927861537
 205     0.0004131440551601
 206    -0.0007497932495515
 207     0.0004755998082032
 208    -0.0002182225846407
 209    -0.0003284873006530
 210     0.0097810224741676
 211    -0.0009006596224079
 212     0.0002421551125432
 213     0.0000997440451670
 214     0.0003131851165140
 215     0.0052982708243398
 216    -0.0035517442960947
 217     0.0083651683023185
 218    -0.0006592855599736
 219     0.0006874092006856
 220     0.0007674232486488
 221     0.0000221162899326
 222     0.0000413862167532
 223    -0.0000261354866567
 224     0.0001903114318775
 225     0.0000591857346178
 226     0.0020915857787789
 227     0.0030714247112541
 228    -0.0017643926758386
 229    -0.0013072987869886
 230    -0.0007695564769562
 231     0.0000109594821538
 232    -0.0005636595056798
 233     0.0008112401477858
 234    -0.0000189295389072
 235    -0.0000026221941394
 236     0.0000033169887512
 237     0.0002055376337159
 238     0.0003318536073113
 239     0.0001507418767479
 240     0.0000035891603682
 241    -0.0009941036282275
 242    -0.0006331110553922
 243     0.0000479298471097
 244     0.0000159183249058
 245     0.0000226982003242
 246     0.0005069692882791
 247     0.0005259723214103
 248     0.0002606322433808
 249    -0.0002731368678800
 250     0.0004580316902199
 251     0.0017983439933143
 252     0.0000436947668172
 253     0.0001673439862693
 254     0.0000296770265290
 255    -0.0013281128749688
 256    -0.0005393498303397
 257    -0.0003883964563546
 258     0.0000511030657354
 259     0.0012601400446642
 260    -0.0004128454516010
 261    -0.0000124996975277
 262     0.0000008397975978
 263     0.0000075680596466
 264    -0.0002272645387225
 265     0.0000659776411518
 266     0.0001187490255875
 267     0.0000211608437600
 268    -0.0016475190096132
 269     0.0001755858475625
 270     0.0000306453655061
 271     0.0000311046379556
 272     0.0000311147174684
 273     0.0000024375518268
 274    -0.0003334252356765
 275    -0.0002160886836262
 276     0.0000101670336868
 277    -0.0005686373058387
 278    -0.0005631451807395
 279     0.0000253095567188
 280     0.0000119351544129
 281    -0.0000191075644378
 282    -0.0000588978945340
 283    -0.0000675611344959
 284     0.0000688549802394
 285    -0.0000344305736713
 286     0.0007755162423774
 287    -0.0002711421149663
 288    -0.0000032432301675
 289    -0.0000304460145547
 290    -0.0000224611882749
 291     0.0000946498996152
 292    -0.0004108191883858
 293    -0.0001522725878760
 294    -0.0001879721604024
 295     0.0030774545258920
 296     0.0004477364408476
 297     0.0000117790404154
 298     0.0000216743356422
 299    -0.0001589793426495
 300     0.0007528190960547
 301    -0.0005579244710714
 302     0.0007794920244852
 Ene=  -11.291111
 Spin=  Alpha
 Occup=    2.000000
   1     0.0000149173593489
   2     0.0000238280591410
   3    -0.0020984881323353
   4    -0.0027667644228169
   5     0.0000210271565109
   6     0.0000069749178720
   7    -0.0000038387375679
   8    -0.0010393750172448
   9    -0.0029124235957936
  10    -0.0003948888321157
  11    -0.0002889089044457
  12    -0.0009544375326625
  13    -0.0003679797879090
  14     0.0000025961740980
  15    -0.0000151607492802
  16    -0.0000126954392220
  17    -0.0000054136634010
  18     0.0000264140998961
  19    -0.0000190329714849
  20     0.0002736046430169
  21    -0.0001758590252348
  22     0.0010909971150792
  23     0.0006413634918226
  24     0.0000216714246532
  25    -0.0000224216709041
  26    -0.0044938944413203
  27    -0.0018834492638719
  28     0.0000772424604212
  29    -0.0000276291272423
  30     0.0000272676235944
  31     0.0045227212164098
  32    -0.0041867330041406
  33     0.0012545095339687
  34     0.0013264853848998
  35    -0.0020157194538204
  36     0.0001525869749801
  37     0.0000086371180373
  38    -0.0000281411911784
  39     0.0000030586557837
  40    -0.0000148273298005
  41     0.0000170246666495
  42    -0.0001862426846896
  43    -0.0005107349551902
  44     0.0002668073916624
  45    -0.0016425277275850
  46     0.0007267084906630
  47     0.0043198187813878
  48     0.0000015732871860
  49     0.0059259649146731
  50    -0.0011281001620642
  51    -0.0001678144173676
  52    -0.0000812561647763
  53    -0.0001172359313802
  54     0.0051936259532393
  55    -0.0015467518191556
  56     0.0002882800907017
  57     0.0032978216951061
  58    -0.0000309400521981
  59     0.0011716427294968
  60     0.0000108114347495
  61     0.0001016022077263
  62     0.0000923780819504
  63    -0.0000335446102828
  64    -0.0000843656374500
  65    -0.0001945588360785
  66     0.0004484120664028
  67    -0.0000978238185335
  68     0.0010823266993381
  69    -0.0027934439603512
  70    -0.0001358940670610
  71    -0.0005585071565975
  72     0.0015349864997249
  73    -0.0033552779165277
  74     0.0003528689798053
  75    -0.0000019128334240
  76     0.0002198859351871
  77     0.0009616599987977
  78     0.0003331970356284
  79     0.0000600759652533
  80     0.0035513577802966
  81     0.0033384953002401
  82     0.0008329588369423
  83     0.0000004465980654
  84     0.0001199219345894
  85     0.0000274473529865
  86     0.0000442572871663
  87     0.0000689803453106
  88     0.0010384191159186
  89     0.0006394468255240
  90     0.0003765961856199
  91    -0.0002259101039834
  92    -0.0003225729575991
  93     0.0002419554150615
  94     0.0003997054335488
  95    -0.0044847994032501
  96    -0.0006897816712382
  97    -0.0001202154972541