 Entering Gaussian System, Link 0=g16
 Initial command:
 /local/gaussian-16.A03/g16/l1.exe "/scratch/3071534/NICS_perpendicular/Gau-35643.inp" -scrdir="/scratch/3071534/NICS_perpendicular/"
 Default CPUs for threads: 0-9,14-23,28-37,42-51
 Default is to use a total of  40 processors:
                               40 via shared-memory
                                1 via Linda
 Entering Link 1 = /local/gaussian-16.A03/g16/l1.exe PID=     35645.
  
 Copyright (c) 1988,1990,1992,1993,1995,1998,2003,2009,2016,
            Gaussian, Inc.  All Rights Reserved.
  
 This is part of the Gaussian(R) 16 program.  It is based on
 the Gaussian(R) 09 system (copyright 2009, Gaussian, Inc.),
 the Gaussian(R) 03 system (copyright 2003, Gaussian, Inc.),
 the Gaussian(R) 98 system (copyright 1998, Gaussian, Inc.),
 the Gaussian(R) 94 system (copyright 1995, Gaussian, Inc.),
 the Gaussian 92(TM) system (copyright 1992, Gaussian, Inc.),
 the Gaussian 90(TM) system (copyright 1990, Gaussian, Inc.),
 the Gaussian 88(TM) system (copyright 1988, Gaussian, Inc.),
 the Gaussian 86(TM) system (copyright 1986, Carnegie Mellon
 University), and the Gaussian 82(TM) system (copyright 1983,
 Carnegie Mellon University). Gaussian is a federally registered
 trademark of Gaussian, Inc.
  
 This software contains proprietary and confidential information,
 including trade secrets, belonging to Gaussian, Inc.
  
 This software is provided under written license and may be
 used, copied, transmitted, or stored only in accord with that
 written license.
  
 The following legend is applicable only to US Government
 contracts under FAR:
  
                    RESTRICTED RIGHTS LEGEND
  
 Use, reproduction and disclosure by the US Government is
 subject to restrictions as set forth in subparagraphs (a)
 and (c) of the Commercial Computer Software - Restricted
 Rights clause in FAR 52.227-19.
  
 Gaussian, Inc.
 340 Quinnipiac St., Bldg. 40, Wallingford CT 06492
  
  
 ---------------------------------------------------------------
 Warning -- This program may not be used in any manner that
 competes with the business of Gaussian, Inc. or will provide
 assistance to any competitor of Gaussian, Inc.  The licensee
 of this program is prohibited from giving any competitor of
 Gaussian, Inc. access to this program.  By using this program,
 the user acknowledges that Gaussian, Inc. is engaged in the
 business of creating and licensing software in the field of
 computational chemistry and represents and warrants to the
 licensee that it is not a competitor of Gaussian, Inc. and that
 it will not use this program in any manner prohibited above.
 ---------------------------------------------------------------
  

 Cite this work as:
 Gaussian 16, Revision A.03,
 M. J. Frisch, G. W. Trucks, H. B. Schlegel, G. E. Scuseria, 
 M. A. Robb, J. R. Cheeseman, G. Scalmani, V. Barone, 
 G. A. Petersson, H. Nakatsuji, X. Li, M. Caricato, A. V. Marenich, 
 J. Bloino, B. G. Janesko, R. Gomperts, B. Mennucci, H. P. Hratchian, 
 J. V. Ortiz, A. F. Izmaylov, J. L. Sonnenberg, D. Williams-Young, 
 F. Ding, F. Lipparini, F. Egidi, J. Goings, B. Peng, A. Petrone, 
 T. Henderson, D. Ranasinghe, V. G. Zakrzewski, J. Gao, N. Rega, 
 G. Zheng, W. Liang, M. Hada, M. Ehara, K. Toyota, R. Fukuda, 
 J. Hasegawa, M. Ishida, T. Nakajima, Y. Honda, O. Kitao, H. Nakai, 
 T. Vreven, K. Throssell, J. A. Montgomery, Jr., J. E. Peralta, 
 F. Ogliaro, M. J. Bearpark, J. J. Heyd, E. N. Brothers, K. N. Kudin, 
 V. N. Staroverov, T. A. Keith, R. Kobayashi, J. Normand, 
 K. Raghavachari, A. P. Rendell, J. C. Burant, S. S. Iyengar, 
 J. Tomasi, M. Cossi, J. M. Millam, M. Klene, C. Adamo, R. Cammi, 
 J. W. Ochterski, R. L. Martin, K. Morokuma, O. Farkas, 
 J. B. Foresman, and D. J. Fox, Gaussian, Inc., Wallingford CT, 2016.
 
 ******************************************
 Gaussian 16:  ES64L-G16RevA.03 25-Dec-2016
                20-Nov-2025 
 ******************************************
 %nprocshared=40
 Will use up to   40 processors via shared memory.
 %mem=90gb
 %chk=dewar_opt_aligendXY_NICS.chk
 -----------------------------------------------
 #p nmr=giao wb97x/aug-cc-pvdz nosymm guess=save
 -----------------------------------------------
 1/38=1,172=1/1;
 2/12=2,15=1,17=6,18=5,40=1/2;
 3/5=16,7=10,11=2,25=1,30=1,74=-57/1,2,3,8;
 4//1;
 5/5=2,38=5/2;
 8/6=1,10=90,11=11/1;
 10/13=100,31=1,45=16/2;
 6/7=2,8=2,9=2,10=2,28=1/1;
 99/9=1/99;
 Leave Link    1 at Thu Nov 20 14:56:14 2025, MaxMem= 12079595520 cpu:               5.3 elap:               0.2
 (Enter /local/gaussian-16.A03/g16/l101.exe)
 --------------------------
 File Created by py.Aroma 5
 --------------------------
 Symbolic Z-matrix:
 Charge =  0 Multiplicity = 1
 C                     2.36278  -0.69989  -0.00171 
 C                     2.36278   0.69939  -0.00154 
 C                     1.16969   1.43783   0. 
 C                     0.        0.6967    0. 
 C                     0.       -0.6967    0. 
 C                     1.16931  -1.43835  -0.00054 
 C                    -1.52527  -0.79182   0.02208 
 C                    -2.16916  -0.67074   1.39765 
 C                    -2.16898   0.6695    1.39789 
 C                    -1.52538   0.79081   0.02252 
 H                     3.31812  -1.22704  -0.00582 
 H                     3.3185    1.22585  -0.0055 
 H                     1.18499   2.5282   -0.00861 
 H                     1.18519  -2.52869  -0.00928 
 H                    -2.03256  -1.36767  -0.75924 
 H                    -2.44964  -1.42081   2.13686 
 H                    -2.45039   1.41947   2.13682 
 H                    -2.03291   1.36688  -0.7586 
 Bq                    1.17674  -0.00002  -1.00063 
 Bq                    1.17812  -0.00032   0.99937 
 Bq                   -0.77728  -0.00009  -0.98875 
 Bq                   -0.74805  -0.00041   1.01104 
 Bq                   -0.94148  -0.00068   1.13392 
 Bq                   -2.75291  -0.00044   0.28614 
 Bq                   -0.03006  -0.00034   0.28723 
 Bq                    1.17743  -0.00017  -0.00063 
 Bq                   -0.76266  -0.00025   0.01115 
 Bq                   -1.8472   -0.00056   0.71003 
 
 ITRead=  0  0  0  0  0  0  0  0  0  0  0  0  0  0  0  0  0  0  0  0
 ITRead=  0  0  0  0  0  0  0  0
 MicOpt= -1 -1 -1 -1 -1 -1 -1 -1 -1 -1 -1 -1 -1 -1 -1 -1 -1 -1 -1 -1
 MicOpt= -1 -1 -1 -1 -1 -1 -1 -1
 NAtoms=     28 NQM=       28 NQMF=       0 NMMI=      0 NMMIF=      0
                NMic=       0 NMicF=      0.
                    Isotopes and Nuclear Properties:
 (Nuclear quadrupole moments (NQMom) in fm**2, nuclear magnetic moments (NMagM)
  in nuclear magnetons)

  Atom         1           2           3           4           5           6           7           8           9          10
 IAtWgt=          12          12          12          12          12          12          12          12          12          12
 AtmWgt=  12.0000000  12.0000000  12.0000000  12.0000000  12.0000000  12.0000000  12.0000000  12.0000000  12.0000000  12.0000000
 NucSpn=           0           0           0           0           0           0           0           0           0           0
 AtZEff=  -0.0000000  -0.0000000  -0.0000000  -0.0000000  -0.0000000  -0.0000000  -0.0000000  -0.0000000  -0.0000000  -0.0000000
 NQMom=    0.0000000   0.0000000   0.0000000   0.0000000   0.0000000   0.0000000   0.0000000   0.0000000   0.0000000   0.0000000
 NMagM=    0.0000000   0.0000000   0.0000000   0.0000000   0.0000000   0.0000000   0.0000000   0.0000000   0.0000000   0.0000000
 AtZNuc=   6.0000000   6.0000000   6.0000000   6.0000000   6.0000000   6.0000000   6.0000000   6.0000000   6.0000000   6.0000000

  Atom        11          12          13          14          15          16          17          18          19          20
 IAtWgt=           1           1           1           1           1           1           1           1           0           0
 AtmWgt=   1.0078250   1.0078250   1.0078250   1.0078250   1.0078250   1.0078250   1.0078250   1.0078250   0.0000000   0.0000000
 NucSpn=           1           1           1           1           1           1           1           1           0           0
 AtZEff=  -0.0000000  -0.0000000  -0.0000000  -0.0000000  -0.0000000  -0.0000000  -0.0000000  -0.0000000  -0.0000000  -0.0000000
 NQMom=    0.0000000   0.0000000   0.0000000   0.0000000   0.0000000   0.0000000   0.0000000   0.0000000   0.0000000   0.0000000
 NMagM=    2.7928460   2.7928460   2.7928460   2.7928460   2.7928460   2.7928460   2.7928460   2.7928460   0.0000000   0.0000000
 AtZNuc=   1.0000000   1.0000000   1.0000000   1.0000000   1.0000000   1.0000000   1.0000000   1.0000000   0.0000000   0.0000000

  Atom        21          22          23          24          25          26          27          28
 IAtWgt=           0           0           0           0           0           0           0           0
 AtmWgt=   0.0000000   0.0000000   0.0000000   0.0000000   0.0000000   0.0000000   0.0000000   0.0000000
 NucSpn=           0           0           0           0           0           0           0           0
 AtZEff=  -0.0000000  -0.0000000  -0.0000000  -0.0000000  -0.0000000  -0.0000000  -0.0000000  -0.0000000
 NQMom=    0.0000000   0.0000000   0.0000000   0.0000000   0.0000000   0.0000000   0.0000000   0.0000000
 NMagM=    0.0000000   0.0000000   0.0000000   0.0000000   0.0000000   0.0000000   0.0000000   0.0000000
 AtZNuc=   0.0000000   0.0000000   0.0000000   0.0000000   0.0000000   0.0000000   0.0000000   0.0000000
 Leave Link  101 at Thu Nov 20 14:56:14 2025, MaxMem= 12079595520 cpu:               8.9 elap:               0.3
 (Enter /local/gaussian-16.A03/g16/l202.exe)
                          Input orientation:                          
 ---------------------------------------------------------------------
 Center     Atomic      Atomic             Coordinates (Angstroms)
 Number     Number       Type             X           Y           Z
 ---------------------------------------------------------------------
      1          6           0        2.362783   -0.699893   -0.001711
      2          6           0        2.362782    0.699393   -0.001535
      3          6           0        1.169687    1.437826    0.000000
      4          6           0        0.000000    0.696697    0.000000
      5          6           0        0.000000   -0.696697    0.000000
      6          6           0        1.169308   -1.438346   -0.000543
      7          6           0       -1.525271   -0.791817    0.022076
      8          6           0       -2.169164   -0.670736    1.397646
      9          6           0       -2.168976    0.669496    1.397885
     10          6           0       -1.525381    0.790814    0.022518
     11          1           0        3.318117   -1.227035   -0.005815
     12          1           0        3.318499    1.225847   -0.005501
     13          1           0        1.184993    2.528198   -0.008612
     14          1           0        1.185195   -2.528689   -0.009278
     15          1           0       -2.032556   -1.367669   -0.759241
     16          1           0       -2.449638   -1.420810    2.136861
     17          1           0       -2.450387    1.419471    2.136825
     18          1           0       -2.032906    1.366877   -0.758597
     19          0           0        1.176738   -0.000021   -1.000631
     20          0           0        1.178115   -0.000319    0.999368
     21          0           0       -0.777279   -0.000094   -0.988745
     22          0           0       -0.748047   -0.000407    1.011042
     23          0           0       -0.941484   -0.000678    1.133921
     24          0           0       -2.752912   -0.000444    0.286141
     25          0           0       -0.030058   -0.000336    0.287232
     26          0           0        1.177427   -0.000170   -0.000632
     27          0           0       -0.762663   -0.000251    0.011148
     28          0           0       -1.847198   -0.000561    0.710031
 ---------------------------------------------------------------------
                    Distance matrix (angstroms):
                    1          2          3          4          5
     1  C    0.000000
     2  C    1.399286   0.000000
     3  C    2.448127   1.403126   0.000000
     4  C    2.744669   2.362784   1.384717   0.000000
     5  C    2.362786   2.744414   2.434000   1.393394   0.000000
     6  C    1.403459   2.448328   2.876172   2.434274   1.384675
     7  C    3.889213   4.164279   3.497798   2.131341   1.528394
     8  C    4.743163   4.936952   4.188959   2.920370   2.580574
     9  C    4.936693   4.743005   3.700146   2.580558   2.919764
    10  C    4.164206   3.889312   2.771736   1.528448   2.130724
    11  H    1.091127   2.150304   3.423050   3.835450   3.360237
    12  H    2.149856   1.091130   2.159249   3.360426   3.835185
    13  H    3.436249   2.175262   1.090513   2.181440   3.435729
    14  H    2.175147   3.436173   3.966556   3.436261   2.181964
    15  H    4.509854   4.915878   4.324536   2.994885   2.271109
    16  H    5.315318   5.676917   5.083059   3.879528   3.330351
    17  H    5.677292   5.315796   4.203724   3.330589   3.879251
    18  H    4.915943   4.510072   3.291976   2.270973   2.994414
    19  Bq   1.701283   1.701198   1.751775   1.694518   1.694501
    20  Bq   1.701470   1.701423   1.751305   1.694852   1.694590
    21  Bq   3.365107   3.365093   2.614557   1.437810   1.437719
    22  Bq   3.345476   3.345488   2.601619   1.437962   1.437567
    23  Bq   3.563249   3.563360   2.795016   1.630491   1.629911
    24  Bq   5.171308   5.171349   4.187754   2.854191   2.853974
    25  Bq   2.509692   2.509719   1.894782   0.754494   0.753873
    26  Bq   1.376475   1.376392   1.438017   1.368195   1.368022
    27  Bq   3.202823   3.202822   2.408769   1.033206   1.032868
    28  Bq   4.326613   4.326684   3.416825   2.098202   2.097830
                    6          7          8          9         10
     6  C    0.000000
     7  C    2.771149   0.000000
     8  C    3.699940   1.523631   0.000000
     9  C    4.188405   2.107758   1.340232   0.000000
    10  C    3.497290   1.582631   2.107501   1.523341   0.000000
    11  H    2.159180   4.862983   5.691171   5.972888   5.247094
    12  H    3.423006   5.247269   5.973298   5.691344   4.863457
    13  H    3.966583   4.285904   4.843667   4.084374   3.219565
    14  H    1.090494   3.219368   4.084501   4.843445   4.285713
    15  H    3.291284   1.095171   2.270801   2.970159   2.351047
    16  H    4.203043   2.392154   1.089824   2.234779   3.196244
    17  H    5.083075   3.196529   2.234824   1.089811   2.391890
    18  H    4.324130   2.350979   2.969818   2.270522   1.095249
    19  Bq   1.751859   2.995617   4.170929   4.170723   2.995614
    20  Bq   1.751520   2.981588   3.436912   3.436639   2.981446
    21  Bq   2.614252   1.485960   2.842880   2.842741   1.485882
    22  Bq   2.601389   1.486089   1.618140   1.617856   1.485752
    23  Bq   2.794520   1.484219   1.423280   1.423217   1.484120
    24  Bq   4.187309   1.484286   1.423199   1.423297   1.484055
    25  Bq   1.894509   1.712429   2.501645   2.501439   1.712303
    26  Bq   1.438199   2.816345   3.688429   3.688186   2.816268
    27  Bq   2.408478   1.099212   2.085707   2.085502   1.098932
    28  Bq   3.416350   1.096816   1.012725   1.012749   1.096592
                   11         12         13         14         15
    11  H    0.000000
    12  H    2.452882   0.000000
    13  H    4.318796   2.499595   0.000000
    14  H    2.498734   4.318280   5.056887   0.000000
    15  H    5.405287   5.994017   5.108213   3.502047   0.000000
    16  H    6.155941   6.698202   5.779988   4.364094   2.926463
    17  H    6.698547   6.156874   4.364420   5.780241   4.041031
    18  H    5.994039   5.405976   3.502288   5.108139   2.734546
    19  Bq   2.660963   2.660860   2.715890   2.716066   3.496898
    20  Bq   2.663613   2.663548   2.722034   2.722145   3.907782
    21  Bq   4.386776   4.386923   3.347153   3.347305   1.870469
    22  Bq   4.367185   4.367362   3.342182   3.342258   2.579393
    23  Bq   4.576806   4.577128   3.496069   3.495784   2.577434
    24  Bq   6.200577   6.200877   4.689137   4.689134   1.865755
    25  Bq   3.577841   3.577995   2.820879   2.820873   2.640966
    26  Bq   2.467342   2.467252   2.528392   2.528546   3.570649
    27  Bq   4.261227   4.261394   3.191678   3.191797   2.018901
    28  Bq   5.356972   5.357284   4.013135   4.013009   2.015466
                   16         17         18         19         20
    16  H    0.000000
    17  H    2.840281   0.000000
    18  H    4.040859   2.925837   0.000000
    19  Bq   5.001310   5.001462   3.496971   0.000000
    20  Bq   4.058605   4.059019   3.907726   1.999999   0.000000
    21  Bq   3.818983   3.818854   1.870341   1.954053   2.788577
    22  Bq   2.486046   2.486243   2.579138   2.784174   1.926197
    23  Bq   2.301563   2.302049   2.577408   3.007188   2.123865
    24  Bq   2.352569   2.352172   1.865329   4.134965   3.995205
    25  Bq   3.360542   3.360779   2.640915   1.764921   1.402433
    26  Bq   4.443275   4.443550   3.570653   0.999999   1.000000
    27  Bq   3.063091   3.063091   2.018679   2.187458   2.177888
    28  Bq   2.101401   2.101444   2.015252   3.474270   3.039117
                   21         22         23         24         25
    21  Bq   0.000000
    22  Bq   2.000001   0.000000
    23  Bq   2.129008   0.229166   0.000000
    24  Bq   2.351268   2.131892   2.000001   0.000000
    25  Bq   1.478667   1.019514   1.244018   2.722854   0.000000
    26  Bq   2.190261   2.175071   2.403538   3.940787   1.241324
    27  Bq   1.000000   1.000001   1.136924   2.009157   0.782900
    28  Bq   2.007627   1.139623   1.000000   1.000000   1.865679
                   26         27         28
    26  Bq   0.000000
    27  Bq   1.940126   0.000000
    28  Bq   3.106992   1.290215   0.000000
 Symmetry turned off by external request.
 Symmetry turned off:
 Cannot cope with ghost atoms or with translation vectors.
 Stoichiometry    C10H8
 Framework group  C1[X(C10H8)]
 NumDoF:  NAt=    18 NAtoms=    28
 Deg. of freedom     0
 Full point group                 C1      NOp   1
 Rotational constants (GHZ):           3.3448129           1.1818815           0.9687363
 Leave Link  202 at Thu Nov 20 14:56:15 2025, MaxMem= 12079595520 cpu:               5.5 elap:               0.2
 (Enter /local/gaussian-16.A03/g16/l301.exe)
 Standard basis: Aug-CC-pVDZ (5D, 7F)
 Warning:  center  19 has no basis functions!
 Warning:  center  20 has no basis functions!
 Warning:  center  21 has no basis functions!
 Warning:  center  22 has no basis functions!
 Warning:  center  23 has no basis functions!
 Warning:  center  24 has no basis functions!
 Warning:  center  25 has no basis functions!
 Warning:  center  26 has no basis functions!
 Warning:  center  27 has no basis functions!
 Warning:  center  28 has no basis functions!
 Ernie: Thresh=  0.10000D-02 Tol=  0.10000D-05 Strict=F.
 Ernie:  20 primitive shells out of 306 were deleted.
   302 basis functions,   518 primitive gaussians,   322 cartesian basis functions
    34 alpha electrons       34 beta electrons
       nuclear repulsion energy       463.5713666951 Hartrees.
 IExCor= 4538 DFT=T Ex+Corr=wB97X ExCW=0 ScaHFX=  1.000000
 ScaDFX=  1.000000  1.000000  1.000000  1.000000 ScalE2=  1.000000  1.000000
 IRadAn=      5 IRanWt=     -1 IRanGd=            0 ICorTp=0 IEmpDi=  4
 HFx  wShort=  0.000000 wLong=  0.300000 cFull=  0.157706 cShort=  0.000000 cLong=  0.842294
 DFx  wShort=  0.000000 wLong=  0.300000 cFull=  0.000000 cShort=  0.000000 cLong=  1.000000
 NAtoms=   28 NActive=   28 NUniq=   28 SFac= 1.00D+00 NAtFMM=   60 NAOKFM=F Big=F
 Integral buffers will be    131072 words long.
 Raffenetti 2 integral format.
 Two-electron integral symmetry is turned off.
 Leave Link  301 at Thu Nov 20 14:56:15 2025, MaxMem= 12079595520 cpu:               4.5 elap:               0.2
 (Enter /local/gaussian-16.A03/g16/l302.exe)
 NPDir=0 NMtPBC=     1 NCelOv=     1 NCel=       1 NClECP=     1 NCelD=      1
         NCelK=      1 NCelE2=     1 NClLst=     1 CellRange=     0.0.
 One-electron integrals computed using PRISM.
 NBasis=   302 RedAO= T EigKep=  1.98D-06  NBF=   302
 NBsUse=   302 1.00D-06 EigRej= -1.00D+00 NBFU=   302
 Precomputing XC quadrature grid using
 IXCGrd= 4 IRadAn=           5 IRanWt=          -1 IRanGd=           0 AccXCQ= 0.00D+00.
 Generated NRdTot=       0 NPtTot=           0 NUsed=           0 NTot=          32
 NSgBfM=   322   322   322   322   322 MxSgAt=    28 MxSgA2=    18.
 Leave Link  302 at Thu Nov 20 14:56:16 2025, MaxMem= 12079595520 cpu:              32.7 elap:               1.0
 (Enter /local/gaussian-16.A03/g16/l303.exe)
 DipDrv:  MaxL=1.
 Leave Link  303 at Thu Nov 20 14:56:16 2025, MaxMem= 12079595520 cpu:               6.8 elap:               0.2
 (Enter /local/gaussian-16.A03/g16/l308.exe)
 Leave Link  308 at Thu Nov 20 14:56:16 2025, MaxMem= 12079595520 cpu:               7.7 elap:               0.2
 (Enter /local/gaussian-16.A03/g16/l401.exe)
 ExpMin= 2.97D-02 ExpMax= 6.67D+03 ExpMxC= 2.28D+02 IAcc=3 IRadAn=         5 AccDes= 0.00D+00
 Harris functional with IExCor= 4538 and IRadAn=       5 diagonalized for initial guess.
 HarFok:  IExCor= 4538 AccDes= 0.00D+00 IRadAn=         5 IDoV= 1 UseB2=F ITyADJ=14
 ICtDFT=  3500011 ScaDFX=  1.000000  1.000000  1.000000  1.000000
 FoFCou: FMM=F IPFlag=           0 FMFlag=      100000 FMFlg1=           0
         NFxFlg=           0 DoJE=T BraDBF=F KetDBF=T FulRan=T
         wScrn=  0.000000 ICntrl=       500 IOpCl=  0 I1Cent=   200000004 NGrid=           0
         NMat0=    1 NMatS0=      1 NMatT0=    0 NMatD0=    1 NMtDS0=    0 NMtDT0=    0
 Symmetry not used in FoFCou.
 Harris En= -368.249535610985    
 JPrj=0 DoOrth=F DoCkMO=F.
 Leave Link  401 at Thu Nov 20 14:56:17 2025, MaxMem= 12079595520 cpu:              41.7 elap:               1.1
 (Enter /local/gaussian-16.A03/g16/l502.exe)
 Two-electron integral symmetry not used.
 Closed shell SCF:
 Using DIIS extrapolation, IDIIS=  1040.
 NGot= 12079595520 LenX= 12079372230 LenY= 12079268105
 Requested convergence on RMS density matrix=1.00D-08 within 128 cycles.
 Requested convergence on MAX density matrix=1.00D-06.
 Requested convergence on             energy=1.00D-06.
 No special actions if energy rises.
 Fock matrices will be formed incrementally for  20 cycles.

 Cycle   1  Pass 1  IDiag  1:
 FoFJK:  IHMeth= 1 ICntrl=       0 DoSepK=T KAlg= 0 I1Cent=           0 FoldK=F
 IRaf=         1 NMat=       1 IRICut=       1 DoRegI=T DoRafI=F ISym2E= 0 IDoP0=0 IntGTp=1.
 FoFCou: FMM=F IPFlag=           0 FMFlag=      100000 FMFlg1=           0
         NFxFlg=           0 DoJE=T BraDBF=F KetDBF=F FulRan=T
         wScrn=  0.000000 ICntrl=       500 IOpCl=  0 I1Cent=           0 NGrid=           0
         NMat0=    1 NMatS0=      1 NMatT0=    0 NMatD0=    1 NMtDS0=    0 NMtDT0=    0
 Symmetry not used in FoFCou.
 E= -385.677826728051    
 DIIS: error= 1.59D-02 at cycle   1 NSaved=   1.
 NSaved= 1 IEnMin= 1 EnMin= -385.677826728051     IErMin= 1 ErrMin= 1.59D-02
 ErrMax= 1.59D-02  0.00D+00 EMaxC= 1.00D-01 BMatC= 7.80D-02 BMatP= 7.80D-02
 IDIUse=3 WtCom= 8.41D-01 WtEn= 1.59D-01
 Coeff-Com:  0.100D+01
 Coeff-En:   0.100D+01
 Coeff:      0.100D+01
 Gap=     0.352 Goal=   None    Shift=    0.000
 GapD=    0.352 DampG=1.000 DampE=0.500 DampFc=0.5000 IDamp=-1.
 Damping current iteration by 5.00D-01
 RMSDP=2.48D-02 MaxDP=1.19D+00              OVMax= 4.45D-02

 Cycle   2  Pass 1  IDiag  1:
 RMSU=  4.14D-03    CP:  9.03D-01
 E= -385.696706664291     Delta-E=       -0.018879936240 Rises=F Damp=T
 DIIS: error= 8.13D-03 at cycle   2 NSaved=   2.
 NSaved= 2 IEnMin= 2 EnMin= -385.696706664291     IErMin= 2 ErrMin= 8.13D-03
 ErrMax= 8.13D-03  0.00D+00 EMaxC= 1.00D-01 BMatC= 1.83D-02 BMatP= 7.80D-02
 IDIUse=3 WtCom= 9.19D-01 WtEn= 8.13D-02
 Coeff-Com: -0.734D+00 0.173D+01
 Coeff-En:   0.000D+00 0.100D+01
 Coeff:     -0.674D+00 0.167D+01
 Gap=     0.386 Goal=   None    Shift=    0.000
 RMSDP=1.26D-02 MaxDP=6.24D-01 DE=-1.89D-02 OVMax= 2.25D-02

 Cycle   3  Pass 1  IDiag  1:
 RMSU=  2.46D-03    CP:  8.05D-01  1.87D+00
 E= -385.714586553463     Delta-E=       -0.017879889172 Rises=F Damp=F
 DIIS: error= 1.62D-03 at cycle   3 NSaved=   3.
 NSaved= 3 IEnMin= 3 EnMin= -385.714586553463     IErMin= 3 ErrMin= 1.62D-03
 ErrMax= 1.62D-03  0.00D+00 EMaxC= 1.00D-01 BMatC= 1.39D-03 BMatP= 1.83D-02
 IDIUse=3 WtCom= 9.84D-01 WtEn= 1.62D-02
 Coeff-Com: -0.309D+00 0.592D+00 0.717D+00
 Coeff-En:   0.000D+00 0.000D+00 0.100D+01
 Coeff:     -0.304D+00 0.582D+00 0.722D+00
 Gap=     0.373 Goal=   None    Shift=    0.000
 RMSDP=1.31D-03 MaxDP=4.26D-02 DE=-1.79D-02 OVMax= 6.45D-03

 Cycle   4  Pass 1  IDiag  1:
 RMSU=  5.17D-04    CP:  7.96D-01  1.93D+00  7.78D-01
 E= -385.716037024657     Delta-E=       -0.001450471194 Rises=F Damp=F
 DIIS: error= 1.89D-04 at cycle   4 NSaved=   4.
 NSaved= 4 IEnMin= 4 EnMin= -385.716037024657     IErMin= 4 ErrMin= 1.89D-04
 ErrMax= 1.89D-04  0.00D+00 EMaxC= 1.00D-01 BMatC= 1.43D-05 BMatP= 1.39D-03
 IDIUse=3 WtCom= 9.98D-01 WtEn= 1.89D-03
 Coeff-Com: -0.148D-01 0.232D-01 0.503D-01 0.941D+00
 Coeff-En:   0.000D+00 0.000D+00 0.000D+00 0.100D+01
 Coeff:     -0.148D-01 0.232D-01 0.502D-01 0.941D+00
 Gap=     0.372 Goal=   None    Shift=    0.000
 RMSDP=1.76D-04 MaxDP=4.03D-03 DE=-1.45D-03 OVMax= 1.70D-03

 Cycle   5  Pass 1  IDiag  1:
 RMSU=  1.31D-04    CP:  7.96D-01  1.93D+00  7.88D-01  1.14D+00
 E= -385.716061102348     Delta-E=       -0.000024077691 Rises=F Damp=F
 DIIS: error= 1.01D-04 at cycle   5 NSaved=   5.
 NSaved= 5 IEnMin= 5 EnMin= -385.716061102348     IErMin= 5 ErrMin= 1.01D-04
 ErrMax= 1.01D-04  0.00D+00 EMaxC= 1.00D-01 BMatC= 4.61D-06 BMatP= 1.43D-05
 IDIUse=3 WtCom= 9.99D-01 WtEn= 1.01D-03
 Coeff-Com:  0.380D-01-0.748D-01-0.874D-01 0.341D+00 0.783D+00
 Coeff-En:   0.000D+00 0.000D+00 0.000D+00 0.000D+00 0.100D+01
 Coeff:      0.379D-01-0.747D-01-0.873D-01 0.341D+00 0.783D+00
 Gap=     0.371 Goal=   None    Shift=    0.000
 RMSDP=8.68D-05 MaxDP=3.18D-03 DE=-2.41D-05 OVMax= 1.03D-03

 Cycle   6  Pass 1  IDiag  1:
 RMSU=  4.32D-05    CP:  7.96D-01  1.93D+00  7.91D-01  1.27D+00  1.03D+00
 E= -385.716067612745     Delta-E=       -0.000006510397 Rises=F Damp=F
 DIIS: error= 2.49D-05 at cycle   6 NSaved=   6.
 NSaved= 6 IEnMin= 6 EnMin= -385.716067612745     IErMin= 6 ErrMin= 2.49D-05
 ErrMax= 2.49D-05  0.00D+00 EMaxC= 1.00D-01 BMatC= 2.87D-07 BMatP= 4.61D-06
 IDIUse=1 WtCom= 1.00D+00 WtEn= 0.00D+00
 Coeff-Com:  0.139D-01-0.269D-01-0.332D-01 0.604D-01 0.266D+00 0.720D+00
 Coeff:      0.139D-01-0.269D-01-0.332D-01 0.604D-01 0.266D+00 0.720D+00
 Gap=     0.371 Goal=   None    Shift=    0.000
 RMSDP=3.27D-05 MaxDP=2.04D-03 DE=-6.51D-06 OVMax= 2.88D-04

 Cycle   7  Pass 1  IDiag  1:
 RMSU=  1.54D-05    CP:  7.96D-01  1.93D+00  7.92D-01  1.30D+00  1.06D+00
                    CP:  1.09D+00
 E= -385.716068021036     Delta-E=       -0.000000408291 Rises=F Damp=F
 DIIS: error= 1.20D-05 at cycle   7 NSaved=   7.
 NSaved= 7 IEnMin= 7 EnMin= -385.716068021036     IErMin= 7 ErrMin= 1.20D-05
 ErrMax= 1.20D-05  0.00D+00 EMaxC= 1.00D-01 BMatC= 3.64D-08 BMatP= 2.87D-07
 IDIUse=1 WtCom= 1.00D+00 WtEn= 0.00D+00
 Coeff-Com: -0.324D-03 0.751D-03 0.239D-03-0.227D-01-0.889D-02 0.234D+00
 Coeff-Com:  0.797D+00
 Coeff:     -0.324D-03 0.751D-03 0.239D-03-0.227D-01-0.889D-02 0.234D+00
 Coeff:      0.797D+00
 Gap=     0.371 Goal=   None    Shift=    0.000
 RMSDP=1.58D-05 MaxDP=8.52D-04 DE=-4.08D-07 OVMax= 1.51D-04

 Cycle   8  Pass 1  IDiag  1:
 RMSU=  4.75D-06    CP:  7.96D-01  1.93D+00  7.92D-01  1.30D+00  1.09D+00
                    CP:  1.17D+00  9.40D-01
 E= -385.716068091143     Delta-E=       -0.000000070106 Rises=F Damp=F
 DIIS: error= 3.47D-06 at cycle   8 NSaved=   8.
 NSaved= 8 IEnMin= 8 EnMin= -385.716068091143     IErMin= 8 ErrMin= 3.47D-06
 ErrMax= 3.47D-06  0.00D+00 EMaxC= 1.00D-01 BMatC= 4.99D-09 BMatP= 3.64D-08
 IDIUse=1 WtCom= 1.00D+00 WtEn= 0.00D+00
 Coeff-Com: -0.229D-02 0.449D-02 0.534D-02-0.165D-01-0.465D-01-0.509D-01
 Coeff-Com:  0.222D+00 0.884D+00
 Coeff:     -0.229D-02 0.449D-02 0.534D-02-0.165D-01-0.465D-01-0.509D-01
 Coeff:      0.222D+00 0.884D+00
 Gap=     0.371 Goal=   None    Shift=    0.000
 RMSDP=7.27D-06 MaxDP=4.53D-04 DE=-7.01D-08 OVMax= 6.96D-05

 Cycle   9  Pass 1  IDiag  1:
 RMSU=  1.84D-06    CP:  7.96D-01  1.93D+00  7.92D-01  1.30D+00  1.08D+00
                    CP:  1.21D+00  1.09D+00  1.07D+00
 E= -385.716068105790     Delta-E=       -0.000000014647 Rises=F Damp=F
 DIIS: error= 1.71D-06 at cycle   9 NSaved=   9.
 NSaved= 9 IEnMin= 9 EnMin= -385.716068105790     IErMin= 9 ErrMin= 1.71D-06
 ErrMax= 1.71D-06  0.00D+00 EMaxC= 1.00D-01 BMatC= 5.77D-10 BMatP= 4.99D-09
 IDIUse=1 WtCom= 1.00D+00 WtEn= 0.00D+00
 Coeff-Com: -0.374D-03 0.719D-03 0.953D-03-0.849D-04-0.716D-02-0.355D-01
 Coeff-Com: -0.530D-01 0.155D+00 0.940D+00
 Coeff:     -0.374D-03 0.719D-03 0.953D-03-0.849D-04-0.716D-02-0.355D-01
 Coeff:     -0.530D-01 0.155D+00 0.940D+00
 Gap=     0.371 Goal=   None    Shift=    0.000
 RMSDP=8.33D-07 MaxDP=2.43D-05 DE=-1.46D-08 OVMax= 3.53D-05

 Cycle  10  Pass 1  IDiag  1:
 RMSU=  5.23D-07    CP:  7.96D-01  1.93D+00  7.92D-01  1.30D+00  1.08D+00
                    CP:  1.21D+00  1.10D+00  1.18D+00  1.09D+00
 E= -385.716068108572     Delta-E=       -0.000000002782 Rises=F Damp=F
 DIIS: error= 8.86D-07 at cycle  10 NSaved=  10.
 NSaved=10 IEnMin=10 EnMin= -385.716068108572     IErMin=10 ErrMin= 8.86D-07
 ErrMax= 8.86D-07  0.00D+00 EMaxC= 1.00D-01 BMatC= 1.11D-10 BMatP= 5.77D-10
 IDIUse=1 WtCom= 1.00D+00 WtEn= 0.00D+00
 Coeff-Com:  0.453D-03-0.890D-03-0.103D-02 0.330D-02 0.895D-02 0.969D-02
 Coeff-Com: -0.466D-01-0.164D+00-0.379D-02 0.119D+01
 Coeff:      0.453D-03-0.890D-03-0.103D-02 0.330D-02 0.895D-02 0.969D-02
 Coeff:     -0.466D-01-0.164D+00-0.379D-02 0.119D+01
 Gap=     0.371 Goal=   None    Shift=    0.000
 RMSDP=6.98D-07 MaxDP=2.56D-05 DE=-2.78D-09 OVMax= 2.36D-05

 Cycle  11  Pass 1  IDiag  1:
 RMSU=  3.70D-07    CP:  7.96D-01  1.93D+00  7.92D-01  1.30D+00  1.08D+00
                    CP:  1.20D+00  1.09D+00  1.20D+00  1.17D+00  1.37D+00
 E= -385.716068109370     Delta-E=       -0.000000000799 Rises=F Damp=F
 DIIS: error= 2.43D-07 at cycle  11 NSaved=  11.
 NSaved=11 IEnMin=11 EnMin= -385.716068109370     IErMin=11 ErrMin= 2.43D-07
 ErrMax= 2.43D-07  0.00D+00 EMaxC= 1.00D-01 BMatC= 2.08D-11 BMatP= 1.11D-10
 IDIUse=1 WtCom= 1.00D+00 WtEn= 0.00D+00
 Coeff-Com:  0.164D-03-0.320D-03-0.386D-03 0.731D-03 0.313D-02 0.863D-02
 Coeff-Com: -0.301D-02-0.601D-01-0.177D+00 0.285D+00 0.944D+00
 Coeff:      0.164D-03-0.320D-03-0.386D-03 0.731D-03 0.313D-02 0.863D-02
 Coeff:     -0.301D-02-0.601D-01-0.177D+00 0.285D+00 0.944D+00
 Gap=     0.371 Goal=   None    Shift=    0.000
 RMSDP=2.25D-07 MaxDP=7.82D-06 DE=-7.99D-10 OVMax= 9.03D-06

 Cycle  12  Pass 1  IDiag  1:
 RMSU=  1.15D-07    CP:  7.96D-01  1.93D+00  7.92D-01  1.30D+00  1.08D+00
                    CP:  1.20D+00  1.09D+00  1.21D+00  1.18D+00  1.51D+00
                    CP:  1.32D+00
 E= -385.716068109473     Delta-E=       -0.000000000103 Rises=F Damp=F
 DIIS: error= 7.02D-08 at cycle  12 NSaved=  12.
 NSaved=12 IEnMin=12 EnMin= -385.716068109473     IErMin=12 ErrMin= 7.02D-08
 ErrMax= 7.02D-08  0.00D+00 EMaxC= 1.00D-01 BMatC= 2.20D-12 BMatP= 2.08D-11
 IDIUse=1 WtCom= 1.00D+00 WtEn= 0.00D+00
 Coeff-Com: -0.379D-04 0.751D-04 0.824D-04-0.374D-03-0.815D-03 0.400D-03
 Coeff-Com:  0.609D-02 0.161D-01-0.369D-01-0.126D+00 0.196D+00 0.945D+00
 Coeff:     -0.379D-04 0.751D-04 0.824D-04-0.374D-03-0.815D-03 0.400D-03
 Coeff:      0.609D-02 0.161D-01-0.369D-01-0.126D+00 0.196D+00 0.945D+00
 Gap=     0.371 Goal=   None    Shift=    0.000
 RMSDP=8.25D-08 MaxDP=2.89D-06 DE=-1.03D-10 OVMax= 2.23D-06

 Cycle  13  Pass 1  IDiag  1:
 RMSU=  3.37D-08    CP:  7.96D-01  1.93D+00  7.92D-01  1.30D+00  1.08D+00
                    CP:  1.20D+00  1.09D+00  1.21D+00  1.17D+00  1.52D+00
                    CP:  1.47D+00  1.15D+00
 E= -385.716068109484     Delta-E=       -0.000000000011 Rises=F Damp=F
 DIIS: error= 1.86D-08 at cycle  13 NSaved=  13.
 NSaved=13 IEnMin=13 EnMin= -385.716068109484     IErMin=13 ErrMin= 1.86D-08
 ErrMax= 1.86D-08  0.00D+00 EMaxC= 1.00D-01 BMatC= 1.27D-13 BMatP= 2.20D-12
 IDIUse=1 WtCom= 1.00D+00 WtEn= 0.00D+00
 Coeff-Com: -0.190D-04 0.373D-04 0.423D-04-0.128D-03-0.377D-03-0.444D-03
 Coeff-Com:  0.141D-02 0.765D-02 0.229D-02-0.480D-01-0.123D-01 0.201D+00
 Coeff-Com:  0.849D+00
 Coeff:     -0.190D-04 0.373D-04 0.423D-04-0.128D-03-0.377D-03-0.444D-03
 Coeff:      0.141D-02 0.765D-02 0.229D-02-0.480D-01-0.123D-01 0.201D+00
 Coeff:      0.849D+00
 Gap=     0.371 Goal=   None    Shift=    0.000
 RMSDP=1.79D-08 MaxDP=9.96D-07 DE=-1.11D-11 OVMax= 3.46D-07

 Cycle  14  Pass 1  IDiag  1:
 RMSU=  9.29D-09    CP:  7.96D-01  1.93D+00  7.92D-01  1.30D+00  1.08D+00
                    CP:  1.20D+00  1.09D+00  1.21D+00  1.17D+00  1.52D+00
                    CP:  1.49D+00  1.17D+00  1.15D+00
 E= -385.716068109486     Delta-E=       -0.000000000002 Rises=F Damp=F
 DIIS: error= 6.09D-09 at cycle  14 NSaved=  14.
 NSaved=14 IEnMin=14 EnMin= -385.716068109486     IErMin=14 ErrMin= 6.09D-09
 ErrMax= 6.09D-09  0.00D+00 EMaxC= 1.00D-01 BMatC= 1.89D-14 BMatP= 1.27D-13
 IDIUse=1 WtCom= 1.00D+00 WtEn= 0.00D+00
 Coeff-Com: -0.209D-05 0.401D-05 0.463D-05-0.139D-05-0.325D-04-0.171D-03
 Coeff-Com: -0.226D-03 0.794D-03 0.426D-02-0.141D-02-0.218D-01-0.417D-01
 Coeff-Com:  0.252D+00 0.809D+00
 Coeff:     -0.209D-05 0.401D-05 0.463D-05-0.139D-05-0.325D-04-0.171D-03
 Coeff:     -0.226D-03 0.794D-03 0.426D-02-0.141D-02-0.218D-01-0.417D-01
 Coeff:      0.252D+00 0.809D+00
 Gap=     0.371 Goal=   None    Shift=    0.000
 RMSDP=7.78D-09 MaxDP=4.15D-07 DE=-1.93D-12 OVMax= 8.31D-08

 SCF Done:  E(RwB97X) =  -385.716068109     A.U. after   14 cycles
            NFock= 14  Conv=0.78D-08     -V/T= 2.0067
 KE= 3.831597385186D+02 PE=-1.820809574190D+03 EE= 5.883624008668D+02
 Leave Link  502 at Thu Nov 20 14:57:10 2025, MaxMem= 12079595520 cpu:            2095.1 elap:              53.0
 (Enter /local/gaussian-16.A03/g16/l801.exe)
 DoSCS=F DFT=T ScalE2(SS,OS)=  1.000000  1.000000
 Range of M.O.s used for correlation:     1   302
 NBasis=   302 NAE=    34 NBE=    34 NFC=     0 NFV=     0
 NROrb=    302 NOA=    34 NOB=    34 NVA=   268 NVB=   268

 **** Warning!!: The largest alpha MO coefficient is  0.97554165D+02

 Leave Link  801 at Thu Nov 20 14:57:11 2025, MaxMem= 12079595520 cpu:               5.5 elap:               0.2
 (Enter /local/gaussian-16.A03/g16/l1002.exe)
 Minotr:  Closed shell wavefunction.
          Direct CPHF calculation.
          Differentiating once with respect to magnetic field using GIAOs.
          Electric field/nuclear overlap derivatives assumed to be zero.
          Requested convergence is 1.0D-08 RMS, and 1.0D-07 maximum.
          Secondary convergence is 1.0D-12 RMS, and 1.0D-12 maximum.
          NewPWx=T KeepS1=F KeepF1=F KeepIn=T MapXYZ=F SortEE=F KeepMc=T.
         6413 words used for storage of precomputed grid.
 Two-electron integral symmetry not used.
          MDV=   12079595520 using IRadAn=       1.
          Solving linear equations simultaneously, MaxMat=     360.
 FoFCou: FMM=F IPFlag=           0 FMFlag=      100000 FMFlg1=           0
         NFxFlg=           0 DoJE=F BraDBF=F KetDBF=T FulRan=T
         wScrn=  0.000000 ICntrl=      6100 IOpCl=  0 I1Cent=           7 NGrid=          28
         NMat0=    1 NMatS0=      1 NMatT0=    0 NMatD0=    1 NMtDS0=    0 NMtDT0=    0
 Symmetry not used in FoFCou.
 FoFJK:  IHMeth= 1 ICntrl=    6127 DoSepK=T KAlg= 0 I1Cent=           0 FoldK=F
 IRaf=         1 NMat=       1 IRICut=       1 DoRegI=T DoRafI=F ISym2E= 0 IDoP0=0 IntGTp=1.
          There are     3 degrees of freedom in the 1st order CPHF.  IDoFFX=0 NUNeed=     3.
      3 vectors produced by pass  0 Test12= 3.04D-13 3.33D-08 XBig12= 1.19D+02 2.63D+00.
 AX will form     3 AO Fock derivatives at one time.
      3 vectors produced by pass  1 Test12= 3.04D-13 3.33D-08 XBig12= 1.00D+00 2.15D-01.
      3 vectors produced by pass  2 Test12= 3.04D-13 3.33D-08 XBig12= 2.33D-02 4.96D-02.
      3 vectors produced by pass  3 Test12= 3.04D-13 3.33D-08 XBig12= 5.49D-04 5.93D-03.
      3 vectors produced by pass  4 Test12= 3.04D-13 3.33D-08 XBig12= 8.26D-06 5.14D-04.
      3 vectors produced by pass  5 Test12= 3.04D-13 3.33D-08 XBig12= 1.11D-07 6.71D-05.
      3 vectors produced by pass  6 Test12= 3.04D-13 3.33D-08 XBig12= 1.71D-09 9.47D-06.
      3 vectors produced by pass  7 Test12= 3.04D-13 3.33D-08 XBig12= 2.38D-11 8.49D-07.
      3 vectors produced by pass  8 Test12= 3.04D-13 3.33D-08 XBig12= 3.59D-13 1.12D-07.
      1 vectors produced by pass  9 Test12= 3.04D-13 3.33D-08 XBig12= 5.13D-14 4.35D-08.
 InvSVY:  IOpt=1 It=  1 EMax= 3.55D-15
 Solved reduced A of dimension    28 with     3 vectors.
 Calculating GIAO nuclear magnetic shielding tensors.
 SCF GIAO Magnetic shielding tensor (ppm):
      1  C    Isotropic =    70.7420   Anisotropy =   174.8808
   XX=   -10.9594   YX=    35.9197   ZX=    -0.0693
   XY=    45.5530   YY=    35.8617   ZY=    -0.4323
   XZ=     1.0919   YZ=    -1.3369   ZZ=   187.3236
   Eigenvalues:   -34.5364    59.4332   187.3292
      2  C    Isotropic =    70.8179   Anisotropy =   174.8230
   XX=   -10.9209   YX=   -35.8208   ZX=    -0.0717
   XY=   -45.4576   YY=    36.0133   ZY=     0.3905
   XZ=     1.0986   YZ=     1.3078   ZZ=   187.3614
   Eigenvalues:   -34.3853    59.4725   187.3666
      3  C    Isotropic =    74.3757   Anisotropy =   166.9550
   XX=    58.1811   YX=     7.8621   ZX=     1.4993
   XY=    -4.0338   YY=   -20.7270   ZY=     1.6304
   XZ=     0.0547   YZ=    -0.5984   ZZ=   185.6730
   Eigenvalues:   -20.7746    58.2227   185.6791
      4  C    Isotropic =    48.1786   Anisotropy =   194.6675
   XX=   -40.9903   YX=    10.1702   ZX=     8.2136
   XY=    42.1908   YY=     9.2016   ZY=    -6.5848
   XZ=   -17.0996   YZ=   -24.3164   ZZ=   176.3247
   Eigenvalues:   -52.1778    18.7567   177.9570
      5  C    Isotropic =    48.1483   Anisotropy =   194.5851
   XX=   -40.9540   YX=   -10.1989   ZX=     8.1962
   XY=   -42.2429   YY=     9.1513   ZY=     6.5404
   XZ=   -17.0572   YZ=    24.2767   ZZ=   176.2476
   Eigenvalues:   -52.1841    18.7573   177.8717
      6  C    Isotropic =    74.3114   Anisotropy =   167.0089
   XX=    58.1858   YX=    -7.7934   ZX=     1.4997
   XY=     4.0971   YY=   -20.8958   ZY=    -1.6982
   XZ=     0.0513   YZ=     0.4985   ZZ=   185.6441
   Eigenvalues:   -20.9407    58.2241   185.6507
      7  C    Isotropic =   148.5835   Anisotropy =    16.8197
   XX=   158.1249   YX=    -7.4864   ZX=    -0.4638
   XY=    -3.4092   YY=   140.0655   ZY=   -11.1216
   XZ=    -4.0482   YZ=   -12.1106   ZZ=   147.5603
   Eigenvalues:   130.4183   155.5357   159.7967
      8  C    Isotropic =    51.3606   Anisotropy =   170.3838
   XX=   134.6813   YX=    -1.0926   ZX=    66.8383
   XY=     6.1140   YY=    47.4200   ZY=    -7.4228
   XZ=    83.2773   YZ=    51.6520   ZZ=   -28.0195
   Eigenvalues:   -60.9470    50.0790   164.9498
      9  C    Isotropic =    51.3658   Anisotropy =   170.3907
   XX=   134.6662   YX=     1.1428   ZX=    66.8543
   XY=    -6.0711   YY=    47.4343   ZY=     7.4374
   XZ=    83.3453   YZ=   -51.6462   ZZ=   -28.0030
   Eigenvalues:   -60.9639    50.1018   164.9596
     10  C    Isotropic =   148.5465   Anisotropy =    16.8687
   XX=   158.1196   YX=     7.4921   ZX=    -0.4776
   XY=     3.4121   YY=   140.0648   ZY=    11.1261
   XZ=    -4.0407   YZ=    12.1269   ZZ=   147.4551
   Eigenvalues:   130.3721   155.4750   159.7923
     11  H    Isotropic =    24.0906   Anisotropy =     4.8027
   XX=    25.0444   YX=     1.1874   ZX=    -0.0540
   XY=     1.7411   YY=    26.3381   ZY=     0.0269
   XZ=    -0.0965   YZ=    -0.0470   ZZ=    20.8894
   Eigenvalues:    20.8880    24.0915    27.2924
     12  H    Isotropic =    24.0924   Anisotropy =     4.7970
   XX=    25.0438   YX=    -1.1799   ZX=    -0.0544
   XY=    -1.7317   YY=    26.3465   ZY=    -0.0257
   XZ=    -0.0954   YZ=     0.0500   ZZ=    20.8870
   Eigenvalues:    20.8856    24.1013    27.2905
     13  H    Isotropic =    24.0762   Anisotropy =     4.9894
   XX=    27.3211   YX=     0.9343   ZX=    -0.1808
   XY=     0.1394   YY=    23.7476   ZY=    -0.0631
   XZ=    -0.0196   YZ=    -0.2640   ZZ=    21.1599
   Eigenvalues:    21.1489    23.6773    27.4024
     14  H    Isotropic =    24.0736   Anisotropy =     4.9917
   XX=    27.3227   YX=    -0.9248   ZX=    -0.1805
   XY=    -0.1327   YY=    23.7355   ZY=     0.0647
   XZ=    -0.0202   YZ=     0.2607   ZZ=    21.1627
   Eigenvalues:    21.1517    23.6678    27.4014
     15  H    Isotropic =    27.1676   Anisotropy =     4.9374
   XX=    27.8009   YX=     1.6170   ZX=     1.5227
   XY=     0.2709   YY=    27.0711   ZY=     1.0004
   XZ=     2.5419   YZ=     2.8268   ZZ=    26.6308
   Eigenvalues:    24.5698    26.4738    30.4592
     16  H    Isotropic =    24.4867   Anisotropy =     2.0366
   XX=    25.2853   YX=    -0.0391   ZX=     0.0587
   XY=     0.8368   YY=    25.5390   ZY=    -1.0833
   XZ=    -0.8045   YZ=     2.1131   ZZ=    22.6358
   Eigenvalues:    22.4788    25.1367    25.8444
     17  H    Isotropic =    24.4862   Anisotropy =     2.0333
   XX=    25.2845   YX=     0.0442   ZX=     0.0584
   XY=    -0.8367   YY=    25.5383   ZY=     1.0829
   XZ=    -0.7974   YZ=    -2.1136   ZZ=    22.6357
   Eigenvalues:    22.4797    25.1371    25.8417
     18  H    Isotropic =    27.1628   Anisotropy =     4.9353
   XX=    27.7993   YX=    -1.6174   ZX=     1.5228
   XY=    -0.2715   YY=    27.0692   ZY=    -1.0000
   XZ=     2.5405   YZ=    -2.8233   ZZ=    26.6198
   Eigenvalues:    24.5641    26.4712    30.4530
     19  Bq   Isotropic =     9.9673   Anisotropy =    28.0206
   XX=     1.7561   YX=     0.0009   ZX=    -0.7081
   XY=    -0.0008   YY=    -0.4985   ZY=     0.0004
   XZ=     0.1007   YZ=    -0.0032   ZZ=    28.6442
   Eigenvalues:    -0.4985     1.7526    28.6476
     20  Bq   Isotropic =     9.8662   Anisotropy =    26.8137
   XX=     2.5782   YX=     0.0011   ZX=    -0.9584
   XY=     0.0005   YY=    -0.6778   ZY=    -0.0093
   XZ=    -1.1406   YZ=    -0.0052   ZZ=    27.6983
   Eigenvalues:    -0.6778     2.5344    27.7420
     21  Bq   Isotropic =     0.6451   Anisotropy =     6.6971
   XX=     4.9541   YX=     0.0015   ZX=    -5.9125
   XY=     0.0031   YY=     0.0962   ZY=     0.0010
   XZ=     3.6491   YZ=    -0.0019   ZZ=    -3.1151
   Eigenvalues:    -3.2709     0.0962     5.1098
     22  Bq   Isotropic =     0.3716   Anisotropy =    11.4297
   XX=     5.4437   YX=    -0.0002   ZX=     0.3087
   XY=     0.0086   YY=    -2.9133   ZY=    -0.0006
   XZ=   -10.0997   YZ=     0.0013   ZZ=    -1.4157
   Eigenvalues:    -3.9633    -2.9133     7.9914
     23  Bq   Isotropic =     0.6268   Anisotropy =    10.9489
   XX=     3.4139   YX=     0.0015   ZX=    -3.7516
   XY=     0.0081   YY=    -3.1087   ZY=     0.0025
   XZ=    -6.9547   YZ=     0.0011   ZZ=     1.5752
   Eigenvalues:    -3.1088    -2.9369     7.9261
     24  Bq   Isotropic =     1.2485   Anisotropy =    10.0514
   XX=     4.6575   YX=     0.0013   ZX=    -3.3255
   XY=     0.0062   YY=    -1.0882   ZY=     0.0018
   XZ=    -6.7917   YZ=     0.0029   ZZ=     0.1762
   Eigenvalues:    -3.1158    -1.0882     7.9495
     25  Bq   Isotropic =    34.4389   Anisotropy =    20.9479
   XX=    44.5717   YX=     0.0013   ZX=     0.3155
   XY=     0.0096   YY=    10.7118   ZY=    -0.0177
   XZ=    -2.7002   YZ=    -0.0079   ZZ=    48.0333
   Eigenvalues:    10.7118    44.2007    48.4042
     26  Bq   Isotropic =     7.7462   Anisotropy =     8.3048
   XX=     6.5876   YX=     0.0029   ZX=    -1.4962
   XY=     0.0002   YY=     3.5625   ZY=    -0.0018
   XZ=    -0.7848   YZ=    -0.0012   ZZ=    13.0884
   Eigenvalues:     3.5625     6.3933    13.2827
     27  Bq   Isotropic =    -2.3864   Anisotropy =    32.8906
   XX=    18.4469   YX=     0.0026   ZX=     3.1360
   XY=     0.0141   YY=    19.5406   ZY=     0.0085
   XZ=    -5.3282   YZ=     0.0056   ZZ=   -45.1467
   Eigenvalues:   -45.1656    18.4657    19.5407
     28  Bq   Isotropic =    -1.3629   Anisotropy =    34.9483
   XX=   -31.8634   YX=     0.0064   ZX=   -27.6383
   XY=     0.0054   YY=    21.9360   ZY=     0.0055
   XZ=   -18.6198   YZ=     0.0074   ZZ=     5.8388
   Eigenvalues:   -42.8505    16.8258    21.9360
 End of Minotr F.D. properties file   721 does not exist.
 End of Minotr F.D. properties file   722 does not exist.
 End of Minotr F.D. properties file   788 does not exist.
 Leave Link 1002 at Thu Nov 20 14:58:00 2025, MaxMem= 12079595520 cpu:            1919.9 elap:              49.1
 (Enter /local/gaussian-16.A03/g16/l601.exe)
 Copying SCF densities to generalized density rwf, IOpCl= 0 IROHF=0.

 **********************************************************************

            Population analysis using the SCF density.

 **********************************************************************

 Alpha  occ. eigenvalues --  -10.28873 -10.28863 -10.27996 -10.27918 -10.27633
 Alpha  occ. eigenvalues --  -10.27629 -10.27494 -10.27446 -10.27329 -10.27278
 Alpha  occ. eigenvalues --   -1.04572  -0.97454  -0.88783  -0.88057  -0.78819
 Alpha  occ. eigenvalues --   -0.78315  -0.71016  -0.69683  -0.63082  -0.62950
 Alpha  occ. eigenvalues --   -0.62402  -0.56907  -0.55573  -0.53330  -0.51073
 Alpha  occ. eigenvalues --   -0.50599  -0.46683  -0.45117  -0.44594  -0.42188
 Alpha  occ. eigenvalues --   -0.39916  -0.35688  -0.34415  -0.32808
 Alpha virt. eigenvalues --    0.04321   0.04537   0.04861   0.05462   0.05950
 Alpha virt. eigenvalues --    0.06161   0.06186   0.06726   0.07018   0.08119
 Alpha virt. eigenvalues --    0.09431   0.10314   0.11652   0.12465   0.12777
 Alpha virt. eigenvalues --    0.13717   0.14037   0.14388   0.14454   0.14804
 Alpha virt. eigenvalues --    0.15529   0.15657   0.16000   0.16246   0.16377
 Alpha virt. eigenvalues --    0.17464   0.17595   0.17958   0.18401   0.18708
 Alpha virt. eigenvalues --    0.19329   0.19440   0.19938   0.21527   0.21895
 Alpha virt. eigenvalues --    0.22177   0.22223   0.23214   0.23242   0.25054
 Alpha virt. eigenvalues --    0.26403   0.26447   0.26832   0.27630   0.27785
 Alpha virt. eigenvalues --    0.28361   0.28959   0.29726   0.30750   0.30826
 Alpha virt. eigenvalues --    0.30871   0.31667   0.32316   0.32883   0.32953
 Alpha virt. eigenvalues --    0.33644   0.33703   0.35862   0.36297   0.36498
 Alpha virt. eigenvalues --    0.36844   0.37842   0.38600   0.39393   0.40039
 Alpha virt. eigenvalues --    0.40295   0.40467   0.41974   0.42057   0.42878
 Alpha virt. eigenvalues --    0.43974   0.45493   0.46397   0.46499   0.47422
 Alpha virt. eigenvalues --    0.48035   0.49079   0.49418   0.50409   0.52339
 Alpha virt. eigenvalues --    0.52519   0.53275   0.54711   0.55188   0.55690
 Alpha virt. eigenvalues --    0.55793   0.56453   0.56785   0.57526   0.58308
 Alpha virt. eigenvalues --    0.58957   0.59903   0.60397   0.60909   0.61982
 Alpha virt. eigenvalues --    0.62364   0.64134   0.64173   0.65114   0.65657
 Alpha virt. eigenvalues --    0.66119   0.66454   0.66990   0.68304   0.69277
 Alpha virt. eigenvalues --    0.69333   0.70374   0.70976   0.71216   0.72250
 Alpha virt. eigenvalues --    0.72534   0.73003   0.73014   0.74354   0.75147
 Alpha virt. eigenvalues --    0.75587   0.75602   0.76922   0.78068   0.78449
 Alpha virt. eigenvalues --    0.79558   0.80644   0.80682   0.82160   0.83735
 Alpha virt. eigenvalues --    0.84430   0.84808   0.86725   0.86779   0.87171
 Alpha virt. eigenvalues --    0.88147   0.88490   0.88697   0.90365   0.91659
 Alpha virt. eigenvalues --    0.92219   0.94271   0.94336   0.97309   0.98059
 Alpha virt. eigenvalues --    0.98949   0.99908   1.01878   1.04175   1.04523
 Alpha virt. eigenvalues --    1.05736   1.06500   1.06707   1.06933   1.07996
 Alpha virt. eigenvalues --    1.12310   1.13418   1.13646   1.16854   1.21411
 Alpha virt. eigenvalues --    1.22784   1.24230   1.28474   1.29721   1.32765
 Alpha virt. eigenvalues --    1.33962   1.34419   1.34559   1.37399   1.37884
 Alpha virt. eigenvalues --    1.38802   1.39745   1.43204   1.43386   1.43832
 Alpha virt. eigenvalues --    1.47091   1.47322   1.48010   1.48090   1.49291
 Alpha virt. eigenvalues --    1.51151   1.52095   1.52541   1.53653   1.55835
 Alpha virt. eigenvalues --    1.57376   1.57469   1.59510   1.59755   1.61670
 Alpha virt. eigenvalues --    1.63551   1.64357   1.65292   1.66276   1.67377
 Alpha virt. eigenvalues --    1.69136   1.70505   1.72813   1.73558   1.74399
 Alpha virt. eigenvalues --    1.75699   1.76606   1.76858   1.79766   1.80022
 Alpha virt. eigenvalues --    1.82311   1.85784   1.86646   1.87478   1.88881
 Alpha virt. eigenvalues --    1.89540   1.91387   1.92500   1.92743   1.97920
 Alpha virt. eigenvalues --    1.98109   1.98897   1.99795   2.00854   2.01920
 Alpha virt. eigenvalues --    2.02195   2.04341   2.04365   2.05629   2.10456
 Alpha virt. eigenvalues --    2.10651   2.12849   2.13529   2.16152   2.16322
 Alpha virt. eigenvalues --    2.17081   2.19096   2.21646   2.22581   2.23023
 Alpha virt. eigenvalues --    2.24306   2.27894   2.30605   2.31728   2.34568
 Alpha virt. eigenvalues --    2.38783   2.39577   2.44360   2.46140   2.47371
 Alpha virt. eigenvalues --    2.50204   2.52069   2.52310   2.55673   2.59379
 Alpha virt. eigenvalues --    2.61683   2.65927   2.65990   2.66884   2.71277
 Alpha virt. eigenvalues --    2.73503   2.75923   2.77737   2.84421   2.89187
 Alpha virt. eigenvalues --    2.94742   2.99074   3.01831   3.08604   3.12121
 Alpha virt. eigenvalues --    3.19598   3.30499   3.48209   3.58093   3.66225
 Alpha virt. eigenvalues --    3.96146   4.42091   4.72715
          Condensed to atoms (all electrons):
               1          2          3          4          5          6
     1  C   11.989470  -4.451447   4.446013  -4.277397   3.301728  -5.421945
     2  C   -4.451447  11.998872  -5.432313   3.303016  -4.281907   4.448333
     3  C    4.446013  -5.432313  18.745949  -8.980629   5.590489  -7.180933
     4  C   -4.277397   3.303016  -8.980629  17.366418  -5.240353   5.586543
     5  C    3.301728  -4.281907   5.590489  -5.240353  17.362794  -8.976817
     6  C   -5.421945   4.448333  -7.180933   5.586543  -8.976817  18.728391
     7  C   -0.058279   0.359926  -1.007450  -2.106146  -0.785116   0.120407
     8  C    0.278107  -0.220396  -0.010542   0.068952   0.041259  -0.114587
     9  C   -0.220411   0.278689  -0.114447   0.039946   0.068706  -0.009935
    10  C    0.360525  -0.056191   0.115642  -0.780152  -2.103472  -1.008016
    11  H   -1.503863   0.855421  -0.219430   0.120008  -0.285803   0.567577
    12  H    0.854683  -1.504167   0.568158  -0.285344   0.120620  -0.219837
    13  H   -0.255561   0.670640  -2.200065   1.258218  -0.479706   0.245264
    14  H    0.668966  -0.256188   0.244642  -0.477187   1.256827  -2.196164
    15  H   -0.030796   0.002503   0.089250   0.231668   0.730600  -0.172028
    16  H   -0.011178   0.001132   0.037058   0.080452   0.131390  -0.084306
    17  H    0.001086  -0.011209  -0.084558   0.131847   0.080848   0.037294
    18  H    0.002459  -0.030733  -0.171887   0.729527   0.232250   0.089451
    19  Bq   0.000000   0.000000   0.000000   0.000000   0.000000   0.000000
    20  Bq   0.000000   0.000000   0.000000   0.000000   0.000000   0.000000
    21  Bq   0.000000   0.000000   0.000000   0.000000   0.000000   0.000000
    22  Bq   0.000000   0.000000   0.000000   0.000000   0.000000   0.000000
    23  Bq   0.000000   0.000000   0.000000   0.000000   0.000000   0.000000
    24  Bq   0.000000   0.000000   0.000000   0.000000   0.000000   0.000000
    25  Bq   0.000000   0.000000   0.000000   0.000000   0.000000   0.000000
    26  Bq   0.000000   0.000000   0.000000   0.000000   0.000000   0.000000
    27  Bq   0.000000   0.000000   0.000000   0.000000   0.000000   0.000000
    28  Bq   0.000000   0.000000   0.000000   0.000000   0.000000   0.000000
               7          8          9         10         11         12
     1  C   -0.058279   0.278107  -0.220411   0.360525  -1.503863   0.854683
     2  C    0.359926  -0.220396   0.278689  -0.056191   0.855421  -1.504167
     3  C   -1.007450  -0.010542  -0.114447   0.115642  -0.219430   0.568158
     4  C   -2.106146   0.068952   0.039946  -0.780152   0.120008  -0.285344
     5  C   -0.785116   0.041259   0.068706  -2.103472  -0.285803   0.120620
     6  C    0.120407  -0.114587  -0.009935  -1.008016   0.567577  -0.219837
     7  C   13.904897  -0.972847   0.643590  -3.672100   0.033160  -0.020012
     8  C   -0.972847   7.609029  -1.829990   0.643529  -0.000765   0.001408
     9  C    0.643590  -1.829990   7.607133  -0.971611   0.001424  -0.000745
    10  C   -3.672100   0.643529  -0.971611  13.896536  -0.020106   0.032909
    11  H    0.033160  -0.000765   0.001424  -0.020106   2.486237  -0.156595
    12  H   -0.020012   0.001408  -0.000745   0.032909  -0.156595   2.485388
    13  H    0.018912  -0.005761   0.066610   0.119615  -0.023833  -0.139676
    14  H    0.118003   0.066445  -0.005766   0.019397  -0.140015  -0.023825
    15  H   -1.706518   0.301713  -0.119204   0.397135   0.000915   0.000017
    16  H   -0.153181  -0.523567   0.351192  -0.060686  -0.000690   0.000502
    17  H   -0.060347   0.350344  -0.522778  -0.154112   0.000501  -0.000685
    18  H    0.397222  -0.119410   0.301968  -1.706150   0.000012   0.000895
    19  Bq   0.000000   0.000000   0.000000   0.000000   0.000000   0.000000
    20  Bq   0.000000   0.000000   0.000000   0.000000   0.000000   0.000000
    21  Bq   0.000000   0.000000   0.000000   0.000000   0.000000   0.000000
    22  Bq   0.000000   0.000000   0.000000   0.000000   0.000000   0.000000
    23  Bq   0.000000   0.000000   0.000000   0.000000   0.000000   0.000000
    24  Bq   0.000000   0.000000   0.000000   0.000000   0.000000   0.000000
    25  Bq   0.000000   0.000000   0.000000   0.000000   0.000000   0.000000
    26  Bq   0.000000   0.000000   0.000000   0.000000   0.000000   0.000000
    27  Bq   0.000000   0.000000   0.000000   0.000000   0.000000   0.000000
    28  Bq   0.000000   0.000000   0.000000   0.000000   0.000000   0.000000
              13         14         15         16         17         18
     1  C   -0.255561   0.668966  -0.030796  -0.011178   0.001086   0.002459
     2  C    0.670640  -0.256188   0.002503   0.001132  -0.011209  -0.030733
     3  C   -2.200065   0.244642   0.089250   0.037058  -0.084558  -0.171887
     4  C    1.258218  -0.477187   0.231668   0.080452   0.131847   0.729527
     5  C   -0.479706   1.256827   0.730600   0.131390   0.080848   0.232250
     6  C    0.245264  -2.196164  -0.172028  -0.084306   0.037294   0.089451
     7  C    0.018912   0.118003  -1.706518  -0.153181  -0.060347   0.397222
     8  C   -0.005761   0.066445   0.301713  -0.523567   0.350344  -0.119410
     9  C    0.066610  -0.005766  -0.119204   0.351192  -0.522778   0.301968
    10  C    0.119615   0.019397   0.397135  -0.060686  -0.154112  -1.706150
    11  H   -0.023833  -0.140015   0.000915  -0.000690   0.000501   0.000012
    12  H   -0.139676  -0.023825   0.000017   0.000502  -0.000685   0.000895
    13  H    2.382559   0.016228   0.002193  -0.000190   0.004456   0.005686
    14  H    0.016228   2.382008   0.005598   0.004439  -0.000193   0.002220
    15  H    0.002193   0.005598   1.931034  -0.005830   0.002164  -0.037283
    16  H   -0.000190   0.004439  -0.005830   1.694807   0.020746   0.002128
    17  H    0.004456  -0.000193   0.002164   0.020746   1.694241  -0.005859
    18  H    0.005686   0.002220  -0.037283   0.002128  -0.005859   1.929894
    19  Bq   0.000000   0.000000   0.000000   0.000000   0.000000   0.000000
    20  Bq   0.000000   0.000000   0.000000   0.000000   0.000000   0.000000
    21  Bq   0.000000   0.000000   0.000000   0.000000   0.000000   0.000000
    22  Bq   0.000000   0.000000   0.000000   0.000000   0.000000   0.000000
    23  Bq   0.000000   0.000000   0.000000   0.000000   0.000000   0.000000
    24  Bq   0.000000   0.000000   0.000000   0.000000   0.000000   0.000000
    25  Bq   0.000000   0.000000   0.000000   0.000000   0.000000   0.000000
    26  Bq   0.000000   0.000000   0.000000   0.000000   0.000000   0.000000
    27  Bq   0.000000   0.000000   0.000000   0.000000   0.000000   0.000000
    28  Bq   0.000000   0.000000   0.000000   0.000000   0.000000   0.000000
              19         20         21         22         23         24
     1  C    0.000000   0.000000   0.000000   0.000000   0.000000   0.000000
     2  C    0.000000   0.000000   0.000000   0.000000   0.000000   0.000000
     3  C    0.000000   0.000000   0.000000   0.000000   0.000000   0.000000
     4  C    0.000000   0.000000   0.000000   0.000000   0.000000   0.000000
     5  C    0.000000   0.000000   0.000000   0.000000   0.000000   0.000000
     6  C    0.000000   0.000000   0.000000   0.000000   0.000000   0.000000
     7  C    0.000000   0.000000   0.000000   0.000000   0.000000   0.000000
     8  C    0.000000   0.000000   0.000000   0.000000   0.000000   0.000000
     9  C    0.000000   0.000000   0.000000   0.000000   0.000000   0.000000
    10  C    0.000000   0.000000   0.000000   0.000000   0.000000   0.000000
    11  H    0.000000   0.000000   0.000000   0.000000   0.000000   0.000000
    12  H    0.000000   0.000000   0.000000   0.000000   0.000000   0.000000
    13  H    0.000000   0.000000   0.000000   0.000000   0.000000   0.000000
    14  H    0.000000   0.000000   0.000000   0.000000   0.000000   0.000000
    15  H    0.000000   0.000000   0.000000   0.000000   0.000000   0.000000
    16  H    0.000000   0.000000   0.000000   0.000000   0.000000   0.000000
    17  H    0.000000   0.000000   0.000000   0.000000   0.000000   0.000000
    18  H    0.000000   0.000000   0.000000   0.000000   0.000000   0.000000
    19  Bq   0.000000   0.000000   0.000000   0.000000   0.000000   0.000000
    20  Bq   0.000000   0.000000   0.000000   0.000000   0.000000   0.000000
    21  Bq   0.000000   0.000000   0.000000   0.000000   0.000000   0.000000
    22  Bq   0.000000   0.000000   0.000000   0.000000   0.000000   0.000000
    23  Bq   0.000000   0.000000   0.000000   0.000000   0.000000   0.000000
    24  Bq   0.000000   0.000000   0.000000   0.000000   0.000000   0.000000
    25  Bq   0.000000   0.000000   0.000000   0.000000   0.000000   0.000000
    26  Bq   0.000000   0.000000   0.000000   0.000000   0.000000   0.000000
    27  Bq   0.000000   0.000000   0.000000   0.000000   0.000000   0.000000
    28  Bq   0.000000   0.000000   0.000000   0.000000   0.000000   0.000000
              25         26         27         28
     1  C    0.000000   0.000000   0.000000   0.000000
     2  C    0.000000   0.000000   0.000000   0.000000
     3  C    0.000000   0.000000   0.000000   0.000000
     4  C    0.000000   0.000000   0.000000   0.000000
     5  C    0.000000   0.000000   0.000000   0.000000
     6  C    0.000000   0.000000   0.000000   0.000000
     7  C    0.000000   0.000000   0.000000   0.000000
     8  C    0.000000   0.000000   0.000000   0.000000
     9  C    0.000000   0.000000   0.000000   0.000000
    10  C    0.000000   0.000000   0.000000   0.000000
    11  H    0.000000   0.000000   0.000000   0.000000
    12  H    0.000000   0.000000   0.000000   0.000000
    13  H    0.000000   0.000000   0.000000   0.000000
    14  H    0.000000   0.000000   0.000000   0.000000
    15  H    0.000000   0.000000   0.000000   0.000000
    16  H    0.000000   0.000000   0.000000   0.000000
    17  H    0.000000   0.000000   0.000000   0.000000
    18  H    0.000000   0.000000   0.000000   0.000000
    19  Bq   0.000000   0.000000   0.000000   0.000000
    20  Bq   0.000000   0.000000   0.000000   0.000000
    21  Bq   0.000000   0.000000   0.000000   0.000000
    22  Bq   0.000000   0.000000   0.000000   0.000000
    23  Bq   0.000000   0.000000   0.000000   0.000000
    24  Bq   0.000000   0.000000   0.000000   0.000000
    25  Bq   0.000000   0.000000   0.000000   0.000000
    26  Bq   0.000000   0.000000   0.000000   0.000000
    27  Bq   0.000000   0.000000   0.000000   0.000000
    28  Bq   0.000000   0.000000   0.000000   0.000000
 Mulliken charges:
               1
     1  C    0.327842
     2  C    0.326021
     3  C    1.565052
     4  C   -0.769387
     5  C   -0.764337
     6  C    1.561311
     7  C    0.945878
     8  C    0.437077
     9  C    0.435630
    10  C    0.947309
    11  H   -0.714155
    12  H   -0.713693
    13  H   -0.685587
    14  H   -0.685432
    15  H   -0.623132
    16  H   -0.484219
    17  H   -0.483785
    18  H   -0.622391
    19  Bq   0.000000
    20  Bq   0.000000
    21  Bq   0.000000
    22  Bq   0.000000
    23  Bq   0.000000
    24  Bq   0.000000
    25  Bq   0.000000
    26  Bq   0.000000
    27  Bq   0.000000
    28  Bq   0.000000
 Sum of Mulliken charges =  -0.00000
 Mulliken charges with hydrogens summed into heavy atoms:
               1
     1  C   -0.386313
     2  C   -0.387672
     3  C    0.879465
     4  C   -0.769387
     5  C   -0.764337
     6  C    0.875878
     7  C    0.322745
     8  C   -0.047142
     9  C   -0.048156
    10  C    0.324918
    19  Bq   0.000000
    20  Bq   0.000000
    21  Bq   0.000000
    22  Bq   0.000000
    23  Bq   0.000000
    24  Bq   0.000000
    25  Bq   0.000000
    26  Bq   0.000000
    27  Bq   0.000000
    28  Bq   0.000000
 Electronic spatial extent (au):  <R**2>=           1267.0059
 Charge=             -0.0000 electrons
 Dipole moment (field-independent basis, Debye):
    X=             -0.3026    Y=             -0.0003    Z=              0.0675  Tot=              0.3100
 Quadrupole moment (field-independent basis, Debye-Ang):
   XX=            -55.7842   YY=            -52.8670   ZZ=            -60.3896
   XY=             -0.0035   XZ=             -0.4607   YZ=              0.0017
 Traceless Quadrupole moment (field-independent basis, Debye-Ang):
   XX=              0.5627   YY=              3.4800   ZZ=             -4.0427
   XY=             -0.0035   XZ=             -0.4607   YZ=              0.0017
 Octapole moment (field-independent basis, Debye-Ang**2):
  XXX=             23.9558  YYY=              0.0489  ZZZ=            -47.9518  XYY=              2.2151
  XXY=              0.0200  XXZ=            -16.6338  XZZ=             -9.7555  YZZ=              0.0193
  YYZ=            -14.2657  XYZ=             -0.0029
 Hexadecapole moment (field-independent basis, Debye-Ang**3):
 XXXX=          -1132.8386 YYYY=           -390.9877 ZZZZ=           -235.4078 XXXY=             -0.0885
 XXXZ=            118.2375 YYYX=             -0.0660 YYYZ=              0.0067 ZZZX=            102.0907
 ZZZY=              0.0000 XXYY=           -236.9550 XXZZ=           -230.2706 YYZZ=           -106.1994
 XXYZ=              0.0208 YYXZ=             30.6322 ZZXY=             -0.0120
 N-N= 4.635713666951D+02 E-N=-1.820809574186D+03  KE= 3.831597385186D+02
 Calculating spin-rotation constants.
 Leave Link  601 at Thu Nov 20 14:58:06 2025, MaxMem= 12079595520 cpu:              67.4 elap:               6.4
 (Enter /local/gaussian-16.A03/g16/l9999.exe)
 1\1\GINC-WUX39\SP\RwB97X\Aug-CC-pVDZ\C10H8\BUEHLERM\20-Nov-2025\0\\#p 
 nmr=giao wb97x/aug-cc-pvdz nosymm guess=save\\File Created by py.Aroma
  5\\0,1\C,0,2.362783,-0.699893,-0.001711\C,0,2.362782,0.699393,-0.0015
 35\C,0,1.169687,1.437826,0.\C,0,0.,0.696697,0.\C,0,0.,-0.696697,0.\C,0
 ,1.169308,-1.438346,-0.000543\C,0,-1.525271,-0.791817,0.022076\C,0,-2.
 169164,-0.670736,1.397646\C,0,-2.168976,0.669496,1.397885\C,0,-1.52538
 1,0.790814,0.022518\H,0,3.318117,-1.227035,-0.005815\H,0,3.318499,1.22
 5847,-0.005501\H,0,1.184993,2.528198,-0.008612\H,0,1.185195,-2.528689,
 -0.009278\H,0,-2.032556,-1.367669,-0.759241\H,0,-2.449638,-1.42081,2.1
 36861\H,0,-2.450387,1.419471,2.136825\H,0,-2.032906,1.366877,-0.758597
 \Bq,0,1.176738,-0.000021,-1.000631\Bq,0,1.178115,-0.000319,0.999368\Bq
 ,0,-0.777279,-0.000094,-0.988745\Bq,0,-0.748047,-0.000407,1.011042\Bq,
 0,-0.941484,-0.000678,1.133921\Bq,0,-2.752912,-0.000444,0.286141\Bq,0,
 -0.030058,-0.000336,0.287232\Bq,0,1.177427,-0.00017,-0.000632\Bq,0,-0.
 762663,-0.000251,0.011148\Bq,0,-1.847198,-0.000561,0.710031\\Version=E
 S64L-G16RevA.03\HF=-385.7160681\RMSD=7.776e-09\Dipole=-0.1190373,-0.00
 01346,0.0265449\Quadrupole=0.4183594,2.5872632,-3.0056226,-0.0025965,-
 0.3425226,0.0012981\PG=C01 [X(C10H8)]\\@


 IT PROBABLY IS NOT POSSIBLE FOR A SCIENTIST TO INTERROGATE NATURE 
 FROM A WHOLLY DISINTERESTED VIEWPOINT.
 EVEN IF HE HAS NO PARTICULAR AXE TO GRIND, HE IS LIKELY TO HAVE 
 A DISTINCTIVE WAY OF VIEWING NATURE.

                                                   -- JOHN LOSEE
 Job cpu time:       0 days  1 hours 10 minutes  6.8 seconds.
 Elapsed time:       0 days  0 hours  1 minutes 52.4 seconds.
 File lengths (MBytes):  RWF=     56 Int=      0 D2E=      0 Chk=      8 Scr=      1
 Normal termination of Gaussian 16 at Thu Nov 20 14:58:07 2025.
