[Molden Format]
[Atoms] Angs
 c       1                    6  2.404899878452e+00 -5.943877715222e-01  8.188538582929e-01
 c       2                    6  2.212544980977e+00  8.238943231499e-01  9.218744374110e-01
 c       3                    6  9.953939144275e-01  1.406384412342e+00  5.683307397403e-01
 n       4                    7 -1.355295541247e-02  5.745568421394e-01  2.175194644758e-01
 b       5                    5  3.576740779965e-02 -8.730201762381e-01  2.119733434985e-01
 c       6                    6  1.366137800613e+00 -1.505264218974e+00  5.490893067038e-01
 c       7                    6 -1.260373377099e+00 -9.680835412734e-01 -7.710772408270e-01
 c       8                    6 -2.684531440506e+00 -5.815463380472e-01 -3.758000608738e-01
 c       9                    6 -2.493527349538e+00  7.614471403234e-01 -4.604414208009e-01
 c      10                    6 -1.047539604968e+00  6.079488016301e-01 -8.649714868420e-01
 h      11                    1  3.432173149634e+00 -9.586691429822e-01  8.984252383432e-01
 h      12                    1  3.048468576044e+00  1.466686508863e+00  1.196866137123e+00
 h      13                    1  8.367911145639e-01  2.483196890062e+00  5.316220913298e-01
 h      14                    1  1.633010878677e+00 -2.562538061539e+00  4.269867856687e-01
 h      15                    1 -1.130141842533e+00 -1.577920380668e+00 -1.674598365959e+00
 h      16                    1 -3.563615783215e+00 -1.184346453576e+00 -1.225492099197e-01
 h      17                    1 -3.120091201526e+00  1.640881259249e+00 -2.826494918649e-01
 h      18                    1 -6.518141463903e-01  1.040779907063e+00 -1.789454125502e+00
[GTO]
1
 s           8
      6.665000000000e+03      6.915839628130e-04
      1.000000000000e+03      5.325796152934e-03
      2.280000000000e+02      2.706072104203e-02
      6.471000000000e+01      1.016568461408e-01
      2.106000000000e+01      2.745748236174e-01
      7.495000000000e+00      4.482943189238e-01
      2.797000000000e+00      2.849026107152e-01
      5.215000000000e-01      1.519485920608e-02
 s           8
      6.665000000000e+03     -2.932696526865e-04
      1.000000000000e+03     -2.318035473975e-03
      2.280000000000e+02     -1.149978603857e-02
      6.471000000000e+01     -4.682672700979e-02
      2.106000000000e+01     -1.284661687505e-01
      7.495000000000e+00     -3.012662724629e-01
      2.797000000000e+00     -2.556307023301e-01
      5.215000000000e-01      1.093793361012e+00
 s           1
      1.596000000000e-01      1.000000000000e+00
 s           1
      4.690000000000e-02      1.000000000000e+00
 p           3
      9.439000000000e+00      5.697925159004e-02
      2.002000000000e+00      3.132072115007e-01
      5.456000000000e-01      7.603767417375e-01
 p           1
      1.517000000000e-01      1.000000000000e+00
 p           1
      4.041000000000e-02      1.000000000000e+00
 d           1
      5.500000000000e-01      1.000000000000e+00
 d           1
      1.510000000000e-01      1.000000000000e+00

2
 s           8
      6.665000000000e+03      6.915839628130e-04
      1.000000000000e+03      5.325796152934e-03
      2.280000000000e+02      2.706072104203e-02
      6.471000000000e+01      1.016568461408e-01
      2.106000000000e+01      2.745748236174e-01
      7.495000000000e+00      4.482943189238e-01
      2.797000000000e+00      2.849026107152e-01
      5.215000000000e-01      1.519485920608e-02
 s           8
      6.665000000000e+03     -2.932696526865e-04
      1.000000000000e+03     -2.318035473975e-03
      2.280000000000e+02     -1.149978603857e-02
      6.471000000000e+01     -4.682672700979e-02
      2.106000000000e+01     -1.284661687505e-01
      7.495000000000e+00     -3.012662724629e-01
      2.797000000000e+00     -2.556307023301e-01
      5.215000000000e-01      1.093793361012e+00
 s           1
      1.596000000000e-01      1.000000000000e+00
 s           1
      4.690000000000e-02      1.000000000000e+00
 p           3
      9.439000000000e+00      5.697925159004e-02
      2.002000000000e+00      3.132072115007e-01
      5.456000000000e-01      7.603767417375e-01
 p           1
      1.517000000000e-01      1.000000000000e+00
 p           1
      4.041000000000e-02      1.000000000000e+00
 d           1
      5.500000000000e-01      1.000000000000e+00
 d           1
      1.510000000000e-01      1.000000000000e+00

3
 s           8
      6.665000000000e+03      6.915839628130e-04
      1.000000000000e+03      5.325796152934e-03
      2.280000000000e+02      2.706072104203e-02
      6.471000000000e+01      1.016568461408e-01
      2.106000000000e+01      2.745748236174e-01
      7.495000000000e+00      4.482943189238e-01
      2.797000000000e+00      2.849026107152e-01
      5.215000000000e-01      1.519485920608e-02
 s           8
      6.665000000000e+03     -2.932696526865e-04
      1.000000000000e+03     -2.318035473975e-03
      2.280000000000e+02     -1.149978603857e-02
      6.471000000000e+01     -4.682672700979e-02
      2.106000000000e+01     -1.284661687505e-01
      7.495000000000e+00     -3.012662724629e-01
      2.797000000000e+00     -2.556307023301e-01
      5.215000000000e-01      1.093793361012e+00
 s           1
      1.596000000000e-01      1.000000000000e+00
 s           1
      4.690000000000e-02      1.000000000000e+00
 p           3
      9.439000000000e+00      5.697925159004e-02
      2.002000000000e+00      3.132072115007e-01
      5.456000000000e-01      7.603767417375e-01
 p           1
      1.517000000000e-01      1.000000000000e+00
 p           1
      4.041000000000e-02      1.000000000000e+00
 d           1
      5.500000000000e-01      1.000000000000e+00
 d           1
      1.510000000000e-01      1.000000000000e+00

4
 s           8
      9.046000000000e+03      6.996174134255e-04
      1.357000000000e+03      5.386054629929e-03
      3.093000000000e+02      2.739102118906e-02
      8.773000000000e+01      1.031505919820e-01
      2.856000000000e+01      2.785706633174e-01
      1.021000000000e+01      4.482948494541e-01
      3.838000000000e+00      2.780859283953e-01
      7.466000000000e-01      1.543156123327e-02
 s           8
      9.046000000000e+03     -3.049900959534e-04
      1.357000000000e+03     -2.408026378508e-03
      3.093000000000e+02     -1.194444872518e-02
      8.773000000000e+01     -4.892599290902e-02
      2.856000000000e+01     -1.344727247250e-01
      1.021000000000e+01     -3.151125777001e-01
      3.838000000000e+00     -2.428578325496e-01
      7.466000000000e-01      1.094382206854e+00
 s           1
      2.248000000000e-01      1.000000000000e+00
 s           1
      6.124000000000e-02      1.000000000000e+00
 p           3
      1.355000000000e+01      5.890567677213e-02
      2.917000000000e+00      3.204611067143e-01
      7.973000000000e-01      7.530420617921e-01
 p           1
      2.185000000000e-01      1.000000000000e+00
 p           1
      5.611000000000e-02      1.000000000000e+00
 d           1
      8.170000000000e-01      1.000000000000e+00
 d           1
      2.300000000000e-01      1.000000000000e+00

5
 s           8
      4.570000000000e+03      6.955544180306e-04
      6.859000000000e+02      5.349572988100e-03
      1.565000000000e+02      2.711662870523e-02
      4.447000000000e+01      1.013150961206e-01
      1.448000000000e+01      2.718808293065e-01
      5.131000000000e+00      4.481159306152e-01
      1.898000000000e+00      2.899372621010e-01
      3.329000000000e-01      1.431283099861e-02
 s           8
      4.570000000000e+03     -2.812802240142e-04
      6.859000000000e+02     -2.219887811105e-03
      1.565000000000e+02     -1.101647150743e-02
      4.447000000000e+01     -4.434918985248e-02
      1.448000000000e+01     -1.209120479502e-01
      5.131000000000e+00     -2.807378995535e-01
      1.898000000000e+00     -2.660668087326e-01
      3.329000000000e-01      1.091784130514e+00
 s           1
      1.043000000000e-01      1.000000000000e+00
 s           1
      3.105000000000e-02      1.000000000000e+00
 p           3
      6.001000000000e+00      5.416586334015e-02
      1.241000000000e+00      3.023798901809e-01
      3.364000000000e-01      7.712922165481e-01
 p           1
      9.538000000000e-02      1.000000000000e+00
 p           1
      2.378000000000e-02      1.000000000000e+00
 d           1
      3.430000000000e-01      1.000000000000e+00
 d           1
      9.040000000000e-02      1.000000000000e+00

6
 s           8
      6.665000000000e+03      6.915839628130e-04
      1.000000000000e+03      5.325796152934e-03
      2.280000000000e+02      2.706072104203e-02
      6.471000000000e+01      1.016568461408e-01
      2.106000000000e+01      2.745748236174e-01
      7.495000000000e+00      4.482943189238e-01
      2.797000000000e+00      2.849026107152e-01
      5.215000000000e-01      1.519485920608e-02
 s           8
      6.665000000000e+03     -2.932696526865e-04
      1.000000000000e+03     -2.318035473975e-03
      2.280000000000e+02     -1.149978603857e-02
      6.471000000000e+01     -4.682672700979e-02
      2.106000000000e+01     -1.284661687505e-01
      7.495000000000e+00     -3.012662724629e-01
      2.797000000000e+00     -2.556307023301e-01
      5.215000000000e-01      1.093793361012e+00
 s           1
      1.596000000000e-01      1.000000000000e+00
 s           1
      4.690000000000e-02      1.000000000000e+00
 p           3
      9.439000000000e+00      5.697925159004e-02
      2.002000000000e+00      3.132072115007e-01
      5.456000000000e-01      7.603767417375e-01
 p           1
      1.517000000000e-01      1.000000000000e+00
 p           1
      4.041000000000e-02      1.000000000000e+00
 d           1
      5.500000000000e-01      1.000000000000e+00
 d           1
      1.510000000000e-01      1.000000000000e+00

7
 s           8
      6.665000000000e+03      6.915839628130e-04
      1.000000000000e+03      5.325796152934e-03
      2.280000000000e+02      2.706072104203e-02
      6.471000000000e+01      1.016568461408e-01
      2.106000000000e+01      2.745748236174e-01
      7.495000000000e+00      4.482943189238e-01
      2.797000000000e+00      2.849026107152e-01
      5.215000000000e-01      1.519485920608e-02
 s           8
      6.665000000000e+03     -2.932696526865e-04
      1.000000000000e+03     -2.318035473975e-03
      2.280000000000e+02     -1.149978603857e-02
      6.471000000000e+01     -4.682672700979e-02
      2.106000000000e+01     -1.284661687505e-01
      7.495000000000e+00     -3.012662724629e-01
      2.797000000000e+00     -2.556307023301e-01
      5.215000000000e-01      1.093793361012e+00
 s           1
      1.596000000000e-01      1.000000000000e+00
 s           1
      4.690000000000e-02      1.000000000000e+00
 p           3
      9.439000000000e+00      5.697925159004e-02
      2.002000000000e+00      3.132072115007e-01
      5.456000000000e-01      7.603767417375e-01
 p           1
      1.517000000000e-01      1.000000000000e+00
 p           1
      4.041000000000e-02      1.000000000000e+00
 d           1
      5.500000000000e-01      1.000000000000e+00
 d           1
      1.510000000000e-01      1.000000000000e+00

8
 s           8
      6.665000000000e+03      6.915839628130e-04
      1.000000000000e+03      5.325796152934e-03
      2.280000000000e+02      2.706072104203e-02
      6.471000000000e+01      1.016568461408e-01
      2.106000000000e+01      2.745748236174e-01
      7.495000000000e+00      4.482943189238e-01
      2.797000000000e+00      2.849026107152e-01
      5.215000000000e-01      1.519485920608e-02
 s           8
      6.665000000000e+03     -2.932696526865e-04
      1.000000000000e+03     -2.318035473975e-03
      2.280000000000e+02     -1.149978603857e-02
      6.471000000000e+01     -4.682672700979e-02
      2.106000000000e+01     -1.284661687505e-01
      7.495000000000e+00     -3.012662724629e-01
      2.797000000000e+00     -2.556307023301e-01
      5.215000000000e-01      1.093793361012e+00
 s           1
      1.596000000000e-01      1.000000000000e+00
 s           1
      4.690000000000e-02      1.000000000000e+00
 p           3
      9.439000000000e+00      5.697925159004e-02
      2.002000000000e+00      3.132072115007e-01
      5.456000000000e-01      7.603767417375e-01
 p           1
      1.517000000000e-01      1.000000000000e+00
 p           1
      4.041000000000e-02      1.000000000000e+00
 d           1
      5.500000000000e-01      1.000000000000e+00
 d           1
      1.510000000000e-01      1.000000000000e+00

9
 s           8
      6.665000000000e+03      6.915839628130e-04
      1.000000000000e+03      5.325796152934e-03
      2.280000000000e+02      2.706072104203e-02
      6.471000000000e+01      1.016568461408e-01
      2.106000000000e+01      2.745748236174e-01
      7.495000000000e+00      4.482943189238e-01
      2.797000000000e+00      2.849026107152e-01
      5.215000000000e-01      1.519485920608e-02
 s           8
      6.665000000000e+03     -2.932696526865e-04
      1.000000000000e+03     -2.318035473975e-03
      2.280000000000e+02     -1.149978603857e-02
      6.471000000000e+01     -4.682672700979e-02
      2.106000000000e+01     -1.284661687505e-01
      7.495000000000e+00     -3.012662724629e-01
      2.797000000000e+00     -2.556307023301e-01
      5.215000000000e-01      1.093793361012e+00
 s           1
      1.596000000000e-01      1.000000000000e+00
 s           1
      4.690000000000e-02      1.000000000000e+00
 p           3
      9.439000000000e+00      5.697925159004e-02
      2.002000000000e+00      3.132072115007e-01
      5.456000000000e-01      7.603767417375e-01
 p           1
      1.517000000000e-01      1.000000000000e+00
 p           1
      4.041000000000e-02      1.000000000000e+00
 d           1
      5.500000000000e-01      1.000000000000e+00
 d           1
      1.510000000000e-01      1.000000000000e+00

10
 s           8
      6.665000000000e+03      6.915839628130e-04
      1.000000000000e+03      5.325796152934e-03
      2.280000000000e+02      2.706072104203e-02
      6.471000000000e+01      1.016568461408e-01
      2.106000000000e+01      2.745748236174e-01
      7.495000000000e+00      4.482943189238e-01
      2.797000000000e+00      2.849026107152e-01
      5.215000000000e-01      1.519485920608e-02
 s           8
      6.665000000000e+03     -2.932696526865e-04
      1.000000000000e+03     -2.318035473975e-03
      2.280000000000e+02     -1.149978603857e-02
      6.471000000000e+01     -4.682672700979e-02
      2.106000000000e+01     -1.284661687505e-01
      7.495000000000e+00     -3.012662724629e-01
      2.797000000000e+00     -2.556307023301e-01
      5.215000000000e-01      1.093793361012e+00
 s           1
      1.596000000000e-01      1.000000000000e+00
 s           1
      4.690000000000e-02      1.000000000000e+00
 p           3
      9.439000000000e+00      5.697925159004e-02
      2.002000000000e+00      3.132072115007e-01
      5.456000000000e-01      7.603767417375e-01
 p           1
      1.517000000000e-01      1.000000000000e+00
 p           1
      4.041000000000e-02      1.000000000000e+00
 d           1
      5.500000000000e-01      1.000000000000e+00
 d           1
      1.510000000000e-01      1.000000000000e+00

11
 s           3
      1.301000000000e+01      3.349872639000e-02
      1.962000000000e+00      2.348008011741e-01
      4.446000000000e-01      8.136829578829e-01
 s           1
      1.220000000000e-01      1.000000000000e+00
 s           1
      2.974000000000e-02      1.000000000000e+00
 p           1
      7.270000000000e-01      1.000000000000e+00
 p           1
      1.410000000000e-01      1.000000000000e+00

12
 s           3
      1.301000000000e+01      3.349872639000e-02
      1.962000000000e+00      2.348008011741e-01
      4.446000000000e-01      8.136829578829e-01
 s           1
      1.220000000000e-01      1.000000000000e+00
 s           1
      2.974000000000e-02      1.000000000000e+00
 p           1
      7.270000000000e-01      1.000000000000e+00
 p           1
      1.410000000000e-01      1.000000000000e+00

13
 s           3
      1.301000000000e+01      3.349872639000e-02
      1.962000000000e+00      2.348008011741e-01
      4.446000000000e-01      8.136829578829e-01
 s           1
      1.220000000000e-01      1.000000000000e+00
 s           1
      2.974000000000e-02      1.000000000000e+00
 p           1
      7.270000000000e-01      1.000000000000e+00
 p           1
      1.410000000000e-01      1.000000000000e+00

14
 s           3
      1.301000000000e+01      3.349872639000e-02
      1.962000000000e+00      2.348008011741e-01
      4.446000000000e-01      8.136829578829e-01
 s           1
      1.220000000000e-01      1.000000000000e+00
 s           1
      2.974000000000e-02      1.000000000000e+00
 p           1
      7.270000000000e-01      1.000000000000e+00
 p           1
      1.410000000000e-01      1.000000000000e+00

15
 s           3
      1.301000000000e+01      3.349872639000e-02
      1.962000000000e+00      2.348008011741e-01
      4.446000000000e-01      8.136829578829e-01
 s           1
      1.220000000000e-01      1.000000000000e+00
 s           1
      2.974000000000e-02      1.000000000000e+00
 p           1
      7.270000000000e-01      1.000000000000e+00
 p           1
      1.410000000000e-01      1.000000000000e+00

16
 s           3
      1.301000000000e+01      3.349872639000e-02
      1.962000000000e+00      2.348008011741e-01
      4.446000000000e-01      8.136829578829e-01
 s           1
      1.220000000000e-01      1.000000000000e+00
 s           1
      2.974000000000e-02      1.000000000000e+00
 p           1
      7.270000000000e-01      1.000000000000e+00
 p           1
      1.410000000000e-01      1.000000000000e+00

17
 s           3
      1.301000000000e+01      3.349872639000e-02
      1.962000000000e+00      2.348008011741e-01
      4.446000000000e-01      8.136829578829e-01
 s           1
      1.220000000000e-01      1.000000000000e+00
 s           1
      2.974000000000e-02      1.000000000000e+00
 p           1
      7.270000000000e-01      1.000000000000e+00
 p           1
      1.410000000000e-01      1.000000000000e+00

18
 s           3
      1.301000000000e+01      3.349872639000e-02
      1.962000000000e+00      2.348008011741e-01
      4.446000000000e-01      8.136829578829e-01
 s           1
      1.220000000000e-01      1.000000000000e+00
 s           1
      2.974000000000e-02      1.000000000000e+00
 p           1
      7.270000000000e-01      1.000000000000e+00
 p           1
      1.410000000000e-01      1.000000000000e+00


[5D]
[7F]
[9G]
[MO]
 Ene=  -15.593533
 Spin=  Alpha
 Occup=    2.000000
   1    -0.0000527002525023
   2    -0.0001015225179775
   3     0.0033637141966665
   4     0.0092057236845748
   5     0.0000133581786592
   6    -0.0000092385070826
   7    -0.0000064289691815
   8    -0.0004652321095395
   9     0.0057090436095628
  10     0.0003752698860782
  11    -0.0038738051837638
  12    -0.0038427342631543
  13    -0.0011839857704351
  14     0.0000113735907123
  15    -0.0000075874263998
  16     0.0000044569751899
  17    -0.0000240857951462
  18     0.0000307230636644
  19    -0.0000859835162023
  20    -0.0002166904730359
  21    -0.0002178281971365
  22    -0.0001336073282047
  23    -0.0018887321214932
  24    -0.0000169597275184
  25    -0.0000533632643199
  26     0.0051689184913114
  27    -0.0117654869985249
  28     0.0001281645486226
  29    -0.0000308205576858
  30    -0.0000032542526173
  31    -0.0028095031939556
  32     0.0072821789395909
  33    -0.0006980737270452
  34     0.0050706844567153
  35    -0.0017500840660445
  36     0.0012348343421843
  37    -0.0000231119618755
  38    -0.0000144703503791
  39     0.0000075950145098
  40    -0.0000903391044397
  41     0.0000221648643410
  42     0.0005742059614223
  43     0.0001554980929158
  44    -0.0007336018164279
  45     0.0019280546929718
  46    -0.0017395616533325
  47     0.0003276594185097
  48     0.0004949830137931
  49     0.0029059852572222
  50     0.0259010614349551
  51    -0.0002648960801691
  52    -0.0002135020689121
  53    -0.0001673924542980
  54    -0.0111662027433377
  55    -0.0050704167289985
  56    -0.0033432926975868
  57     0.0019225724117071
  58    -0.0047887962011576
  59     0.0004632899078068
  60    -0.0000336533718561
  61    -0.0000852311579788
  62    -0.0001216393321917
  63    -0.0001276294414824
  64    -0.0002884907133872
  65    -0.0009666309890561
  66     0.0001732777104858
  67     0.0014509544240815
  68    -0.0017565135913779
  69     0.0048250391225630
  70     1.0031781990737894
  71     0.0056003321431264
  72    -0.0268901060312847
  73    -0.0142483768210297
  74     0.0003784007415517
  75     0.0005535149541934
  76    -0.0005217957741107
  77    -0.0000944253153842
  78    -0.0026131641772803
  79     0.0020202485500298
  80    -0.0037109084564504
  81    -0.0026927533256559
  82    -0.0009832971064552
  83    -0.0001565094127671
  84     0.0001327134425186
  85     0.0001349619666064
  86    -0.0000209498677571
  87     0.0002157256651109
  88     0.0001765667730067
  89    -0.0020763468034792
  90    -0.0010203450976843
  91    -0.0012902390639675
  92    -0.0016794898266941
  93     0.0002258152346694
  94     0.0004217087035701
  95    -0.0002836102701719
  96    -0.0041296630739455
  97    -0.0000697292260459
  98     0.0002953293727921
  99    -0.0001279455168127
 100     0.0016207660805753
 101    -0.0021537826614834
 102     0.0000746991245927
 103    -0.0006000047514447
 104    -0.0001898901664100
 105    -0.0000196365849824
 106    -0.0000539196800908
 107     0.0000291129869982
 108    -0.0000953976491563
 109     0.0000520151355264
 110    -0.0001152574082641
 111     0.0003987857833055
 112     0.0005496302335090
 113    -0.0006057532597444
 114     0.0014056285996298
 115    -0.0011030519377598
 116     0.0000123721454968
 117    -0.0000031165906246
 118     0.0016165473118575
 119    -0.0117083089053845
 120     0.0000258022224277
 121    -0.0000402110591812
 122    -0.0000044675200824
 123     0.0027998141693830
 124     0.0008777701127261
 125     0.0005637087177987
 126    -0.0026716421501418
 127    -0.0019185724066280
 128    -0.0006905966820595
 129     0.0000532695826736
 130    -0.0000238727304022
 131     0.0000081090791181
 132    -0.0000025801146658
 133     0.0000537796042493
 134    -0.0001480128793148
 135     0.0003119993923903
 136     0.0001360686994679
 137     0.0008457825554285
 138     0.0005359526985267
 139    -0.0000005312096570
 140     0.0000133071174428
 141    -0.0033998149930974
 142     0.0050133017092451
 143    -0.0000462614184909
 144    -0.0000888914717321
 145     0.0000259154719031
 146    -0.0010873103308260
 147    -0.0025094357527768
 148    -0.0016091812310841
 149     0.0005173126568582
 150     0.0009364030582443
 151     0.0003429230911477
 152    -0.0000118938615736
 153     0.0000673379469605
 154     0.0000011537280902
 155     0.0000490604792789
 156     0.0000095262301833
 157     0.0003889669472223
 158    -0.0000666548918917
 159    -0.0006396344580153
 160     0.0001311299366134
 161    -0.0006480649749714
 162     0.0000957717564884
 163     0.0001565955939331
 164    -0.0027102555730373
 165    -0.0021902239094046
 166     0.0000644005605115
 167    -0.0000369221382442
 168    -0.0000066861372607
 169     0.0000446359490096
 170    -0.0018894295412229
 171     0.0005023858630662
 172    -0.0008974971711162
 173    -0.0005738664808231
 174    -0.0000428908638256
 175     0.0000645749038586
 176    -0.0000170371140983
 177    -0.0000269081953083
 178    -0.0000017622739971
 179    -0.0000421189830683
 180    -0.0000440392411360
 181    -0.0001035114005919
 182     0.0002708990964247
 183     0.0005648206253994
 184     0.0001995792435169
 185     0.0000426140790008
 186     0.0000608884518795
 187     0.0041952521960796
 188     0.0006013219278663
 189     0.0000069749791708
 190     0.0000078650122595
 191    -0.0000339251345307
 192    -0.0005026175976453
 193    -0.0020930875133071
 194    -0.0006868024919080
 195    -0.0001156455855068
 196    -0.0001369974018306
 197     0.0000593415877011
 198     0.0000918560804629
 199    -0.0000576234718066
 200    -0.0000147231756721
 201    -0.0001474415228074
 202     0.0000717326799376
 203    -0.0002790812614208
 204    -0.0001482016020978
 205     0.0004627275312549
 206    -0.0009968465362711
 207     0.0005335337773963
 208    -0.0002148441511243
 209    -0.0003271274228648
 210     0.0099075266437601
 211    -0.0016346377900279
 212     0.0002622613576345
 213     0.0000823711167986
 214     0.0003000016467273
 215     0.0057440379775127
 216    -0.0038234081747584
 217     0.0081083079245796
 218    -0.0003967086593650
 219     0.0007284456811507
 220     0.0008337172194448
 221     0.0000256187540196
 222     0.0000326143922019
 223    -0.0000481509047161
 224     0.0001821994701599
 225     0.0000540945022160
 226     0.0016060839981295
 227     0.0032591953340920
 228    -0.0018044263425978
 229    -0.0010346286816199
 230    -0.0012117235793385
 231     0.0000072347221622
 232    -0.0006247264653072
 233     0.0007867315820885
 234    -0.0000198091530577
 235    -0.0000029671475076
 236     0.0000010894904592
 237     0.0002074730604057
 238     0.0003105226268821
 239     0.0001233837845056
 240    -0.0000137630983761
 241    -0.0012916318614036
 242    -0.0006163766078954
 243     0.0000461904514572
 244     0.0000129810149070
 245     0.0000217692396911
 246     0.0005490786536080
 247     0.0005185382772750
 248     0.0002832548691060
 249    -0.0002982173722305
 250     0.0006506570176083
 251     0.0016645769677405
 252     0.0000417519253426
 253     0.0001803792030594
 254     0.0000308547017052
 255    -0.0012732379739153
 256    -0.0005742975484836
 257    -0.0004208894445492
 258     0.0000530908848256
 259     0.0011366686743561
 260    -0.0005138754167068
 261    -0.0000146618308695
 262     0.0000047614370044
 263     0.0000077183050768
 264    -0.0002273072790708
 265     0.0000558170825899
 266     0.0000706203172434
 267     0.0000292900748483
 268    -0.0016016174843091
 269     0.0004062318632508
 270     0.0000366035713341
 271     0.0000293295973069
 272     0.0000286364060575
 273     0.0000533058816097
 274    -0.0002844108013473
 275    -0.0002210769898993
 276     0.0000059083233161
 277    -0.0010006290856549
 278    -0.0005401030993567
 279     0.0000286635571177
 280     0.0000128575475551
 281    -0.0000225753890993
 282    -0.0001582519033058
 283    -0.0001591908763845
 284     0.0000900542444207
 285    -0.0000264345314181
 286     0.0008908394975634
 287    -0.0001987302399188
 288    -0.0000101704039972
 289    -0.0000340795281222
 290    -0.0000271112848150
 291     0.0000630575675183
 292    -0.0004559851386732
 293    -0.0001918052276872
 294    -0.0001936317265096
 295     0.0031801858529414
 296     0.0004643312077547
 297     0.0000022025380797
 298     0.0000347006667792
 299    -0.0001573023996662
 300     0.0007566937510039
 301    -0.0005717662807822
 302     0.0007618412928695
 Ene=  -11.286884
 Spin=  Alpha
 Occup=    2.000000
   1    -0.0000127686322751
   2    -0.0000195192140738
   3    -0.0002423623497309
   4    -0.0026885121828133
   5     0.0000137763944439
   6     0.0000112084278551
   7    -0.0000076513723240
   8    -0.0014352935605264
   9    -0.0011225969076453
  10    -0.0003727654343595
  11    -0.0004054484351257
  12    -0.0008037635225476
  13    -0.0003065947050402
  14    -0.0000160932930331
  15    -0.0000020159673713
  16    -0.0000102964367737
  17     0.0000019071942689
  18     0.0000162184772953
  19     0.0000515284201581
  20     0.0002618645996685
  21    -0.0000881273957663
  22     0.0009560354962539
  23     0.0002520668953439
  24     0.0002794149751401
  25    -0.0000028034000064
  26    -0.0018015691461738
  27    -0.0033180984890072
  28     0.0000531150263953
  29    -0.0000287945478201
  30     0.0000121939757015
  31     0.0018390841716326
  32    -0.0020035115605516
  33     0.0011074020527649
  34     0.0014145340190468
  35    -0.0022209409624648
  36     0.0002571883681371
  37     0.0000057900122031
  38    -0.0000223666421872
  39     0.0000071947649023
  40     0.0000099174286494
  41     0.0000313270571835
  42    -0.0001714292085672
  43    -0.0004826415746809
  44     0.0000067093133481
  45    -0.0005232010098105
  46     0.0001559163556763
  47     0.0249715386349379
  48     0.0002063511502219
  49     0.0020258614411692
  50     0.0011698438719017
  51    -0.0001449797678553
  52    -0.0000778484361960
  53    -0.0001225900153521
  54     0.0018679328214369
  55    -0.0001637403885130
  56    -0.0005993562683677
  57     0.0035996643963662
  58    -0.0003503605194089
  59     0.0014235710253385
  60     0.0000386164951520
  61     0.0001144393847054
  62     0.0000932159517519
  63     0.0000376122412674
  64    -0.0000775693660509
  65    -0.0000510176854977
  66     0.0004054169919056
  67     0.0003533225042116
  68     0.0011439242380463
  69    -0.0014763740394558
  70    -0.0001123275852438
  71    -0.0005063501261143
  72     0.0003080808972039
  73    -0.0065093851397866
  74     0.0003577160128018
  75    -0.0000113780130099
  76     0.0002204263925423
  77     0.0005162725379836
  78     0.0000280188143837
  79    -0.0001759020741601
  80     0.0020659557047513
  81     0.0029090217864302
  82     0.0006413454046793
  83     0.0000088577742890
  84     0.0001104248629121
  85     0.0000191859313944
  86     0.0000322314354842
  87     0.0000715376127295
  88     0.0008965268380015
  89     0.0009696577891142
  90     0.0003133547120399
  91     0.0001886096363813
  92    -0.0004321477349401
  93     0.0003210941849178
  94     0.0005245628964169
  95    -0.0037572911929870
  96    -0.0008373127326084
  97    -0.0001071289606749