[Molden Format]
[Atoms] Angs
 c       1                    6  2.348958706520e+00 -6.106561354960e-01  9.471830435391e-01
 c       2                    6  2.196082383739e+00  8.164430960475e-01  9.350792663806e-01
 c       3                    6  1.044746986803e+00  1.409580097226e+00  4.150970267498e-01
 n       4                    7  7.762834364700e-02  5.687761708811e-01 -2.393337088670e-02
 b       5                    5  1.001918709379e-01 -8.765413289661e-01 -1.568804227384e-02
 c       6                    6  1.361625053114e+00 -1.514528894792e+00  5.185243404844e-01
 c       7                    6 -1.242378141593e+00 -9.319825688439e-01 -9.271803809487e-01
 c       8                    6 -2.610316254339e+00 -6.248040062914e-01 -3.081466806434e-01
 c       9                    6 -2.465432614590e+00  7.339524309227e-01 -3.217203743834e-01
 c      10                    6 -1.082233794314e+00  6.567852379503e-01 -9.525956878051e-01
 h      11                    1  3.323209933006e+00 -9.946040016547e-01  1.275200844634e+00
 h      12                    1  3.002570915274e+00  1.455605691325e+00  1.299163206196e+00
 h      13                    1  9.078379337355e-01  2.491831036698e+00  3.282695439870e-01
 h      14                    1  1.605221727532e+00 -2.581251030796e+00  5.423436445454e-01
 h      15                    1 -1.221401824240e+00 -1.481102480771e+00 -1.878391618495e+00
 h      16                    1 -3.416133628502e+00 -1.276630906013e+00  3.672599742423e-02
 h      17                    1 -3.079663037411e+00  1.570944462883e+00  1.654306026092e-02
 h      18                    1 -8.505145593180e-01  1.188183129689e+00 -1.886473818766e+00
[GTO]
1
 s           8
      6.665000000000e+03      6.915839628130e-04
      1.000000000000e+03      5.325796152934e-03
      2.280000000000e+02      2.706072104203e-02
      6.471000000000e+01      1.016568461408e-01
      2.106000000000e+01      2.745748236174e-01
      7.495000000000e+00      4.482943189238e-01
      2.797000000000e+00      2.849026107152e-01
      5.215000000000e-01      1.519485920608e-02
 s           8
      6.665000000000e+03     -2.932696526865e-04
      1.000000000000e+03     -2.318035473975e-03
      2.280000000000e+02     -1.149978603857e-02
      6.471000000000e+01     -4.682672700979e-02
      2.106000000000e+01     -1.284661687505e-01
      7.495000000000e+00     -3.012662724629e-01
      2.797000000000e+00     -2.556307023301e-01
      5.215000000000e-01      1.093793361012e+00
 s           1
      1.596000000000e-01      1.000000000000e+00
 s           1
      4.690000000000e-02      1.000000000000e+00
 p           3
      9.439000000000e+00      5.697925159004e-02
      2.002000000000e+00      3.132072115007e-01
      5.456000000000e-01      7.603767417375e-01
 p           1
      1.517000000000e-01      1.000000000000e+00
 p           1
      4.041000000000e-02      1.000000000000e+00
 d           1
      5.500000000000e-01      1.000000000000e+00
 d           1
      1.510000000000e-01      1.000000000000e+00

2
 s           8
      6.665000000000e+03      6.915839628130e-04
      1.000000000000e+03      5.325796152934e-03
      2.280000000000e+02      2.706072104203e-02
      6.471000000000e+01      1.016568461408e-01
      2.106000000000e+01      2.745748236174e-01
      7.495000000000e+00      4.482943189238e-01
      2.797000000000e+00      2.849026107152e-01
      5.215000000000e-01      1.519485920608e-02
 s           8
      6.665000000000e+03     -2.932696526865e-04
      1.000000000000e+03     -2.318035473975e-03
      2.280000000000e+02     -1.149978603857e-02
      6.471000000000e+01     -4.682672700979e-02
      2.106000000000e+01     -1.284661687505e-01
      7.495000000000e+00     -3.012662724629e-01
      2.797000000000e+00     -2.556307023301e-01
      5.215000000000e-01      1.093793361012e+00
 s           1
      1.596000000000e-01      1.000000000000e+00
 s           1
      4.690000000000e-02      1.000000000000e+00
 p           3
      9.439000000000e+00      5.697925159004e-02
      2.002000000000e+00      3.132072115007e-01
      5.456000000000e-01      7.603767417375e-01
 p           1
      1.517000000000e-01      1.000000000000e+00
 p           1
      4.041000000000e-02      1.000000000000e+00
 d           1
      5.500000000000e-01      1.000000000000e+00
 d           1
      1.510000000000e-01      1.000000000000e+00

3
 s           8
      6.665000000000e+03      6.915839628130e-04
      1.000000000000e+03      5.325796152934e-03
      2.280000000000e+02      2.706072104203e-02
      6.471000000000e+01      1.016568461408e-01
      2.106000000000e+01      2.745748236174e-01
      7.495000000000e+00      4.482943189238e-01
      2.797000000000e+00      2.849026107152e-01
      5.215000000000e-01      1.519485920608e-02
 s           8
      6.665000000000e+03     -2.932696526865e-04
      1.000000000000e+03     -2.318035473975e-03
      2.280000000000e+02     -1.149978603857e-02
      6.471000000000e+01     -4.682672700979e-02
      2.106000000000e+01     -1.284661687505e-01
      7.495000000000e+00     -3.012662724629e-01
      2.797000000000e+00     -2.556307023301e-01
      5.215000000000e-01      1.093793361012e+00
 s           1
      1.596000000000e-01      1.000000000000e+00
 s           1
      4.690000000000e-02      1.000000000000e+00
 p           3
      9.439000000000e+00      5.697925159004e-02
      2.002000000000e+00      3.132072115007e-01
      5.456000000000e-01      7.603767417375e-01
 p           1
      1.517000000000e-01      1.000000000000e+00
 p           1
      4.041000000000e-02      1.000000000000e+00
 d           1
      5.500000000000e-01      1.000000000000e+00
 d           1
      1.510000000000e-01      1.000000000000e+00

4
 s           8
      9.046000000000e+03      6.996174134255e-04
      1.357000000000e+03      5.386054629929e-03
      3.093000000000e+02      2.739102118906e-02
      8.773000000000e+01      1.031505919820e-01
      2.856000000000e+01      2.785706633174e-01
      1.021000000000e+01      4.482948494541e-01
      3.838000000000e+00      2.780859283953e-01
      7.466000000000e-01      1.543156123327e-02
 s           8
      9.046000000000e+03     -3.049900959534e-04
      1.357000000000e+03     -2.408026378508e-03
      3.093000000000e+02     -1.194444872518e-02
      8.773000000000e+01     -4.892599290902e-02
      2.856000000000e+01     -1.344727247250e-01
      1.021000000000e+01     -3.151125777001e-01
      3.838000000000e+00     -2.428578325496e-01
      7.466000000000e-01      1.094382206854e+00
 s           1
      2.248000000000e-01      1.000000000000e+00
 s           1
      6.124000000000e-02      1.000000000000e+00
 p           3
      1.355000000000e+01      5.890567677213e-02
      2.917000000000e+00      3.204611067143e-01
      7.973000000000e-01      7.530420617921e-01
 p           1
      2.185000000000e-01      1.000000000000e+00
 p           1
      5.611000000000e-02      1.000000000000e+00
 d           1
      8.170000000000e-01      1.000000000000e+00
 d           1
      2.300000000000e-01      1.000000000000e+00

5
 s           8
      4.570000000000e+03      6.955544180306e-04
      6.859000000000e+02      5.349572988100e-03
      1.565000000000e+02      2.711662870523e-02
      4.447000000000e+01      1.013150961206e-01
      1.448000000000e+01      2.718808293065e-01
      5.131000000000e+00      4.481159306152e-01
      1.898000000000e+00      2.899372621010e-01
      3.329000000000e-01      1.431283099861e-02
 s           8
      4.570000000000e+03     -2.812802240142e-04
      6.859000000000e+02     -2.219887811105e-03
      1.565000000000e+02     -1.101647150743e-02
      4.447000000000e+01     -4.434918985248e-02
      1.448000000000e+01     -1.209120479502e-01
      5.131000000000e+00     -2.807378995535e-01
      1.898000000000e+00     -2.660668087326e-01
      3.329000000000e-01      1.091784130514e+00
 s           1
      1.043000000000e-01      1.000000000000e+00
 s           1
      3.105000000000e-02      1.000000000000e+00
 p           3
      6.001000000000e+00      5.416586334015e-02
      1.241000000000e+00      3.023798901809e-01
      3.364000000000e-01      7.712922165481e-01
 p           1
      9.538000000000e-02      1.000000000000e+00
 p           1
      2.378000000000e-02      1.000000000000e+00
 d           1
      3.430000000000e-01      1.000000000000e+00
 d           1
      9.040000000000e-02      1.000000000000e+00

6
 s           8
      6.665000000000e+03      6.915839628130e-04
      1.000000000000e+03      5.325796152934e-03
      2.280000000000e+02      2.706072104203e-02
      6.471000000000e+01      1.016568461408e-01
      2.106000000000e+01      2.745748236174e-01
      7.495000000000e+00      4.482943189238e-01
      2.797000000000e+00      2.849026107152e-01
      5.215000000000e-01      1.519485920608e-02
 s           8
      6.665000000000e+03     -2.932696526865e-04
      1.000000000000e+03     -2.318035473975e-03
      2.280000000000e+02     -1.149978603857e-02
      6.471000000000e+01     -4.682672700979e-02
      2.106000000000e+01     -1.284661687505e-01
      7.495000000000e+00     -3.012662724629e-01
      2.797000000000e+00     -2.556307023301e-01
      5.215000000000e-01      1.093793361012e+00
 s           1
      1.596000000000e-01      1.000000000000e+00
 s           1
      4.690000000000e-02      1.000000000000e+00
 p           3
      9.439000000000e+00      5.697925159004e-02
      2.002000000000e+00      3.132072115007e-01
      5.456000000000e-01      7.603767417375e-01
 p           1
      1.517000000000e-01      1.000000000000e+00
 p           1
      4.041000000000e-02      1.000000000000e+00
 d           1
      5.500000000000e-01      1.000000000000e+00
 d           1
      1.510000000000e-01      1.000000000000e+00

7
 s           8
      6.665000000000e+03      6.915839628130e-04
      1.000000000000e+03      5.325796152934e-03
      2.280000000000e+02      2.706072104203e-02
      6.471000000000e+01      1.016568461408e-01
      2.106000000000e+01      2.745748236174e-01
      7.495000000000e+00      4.482943189238e-01
      2.797000000000e+00      2.849026107152e-01
      5.215000000000e-01      1.519485920608e-02
 s           8
      6.665000000000e+03     -2.932696526865e-04
      1.000000000000e+03     -2.318035473975e-03
      2.280000000000e+02     -1.149978603857e-02
      6.471000000000e+01     -4.682672700979e-02
      2.106000000000e+01     -1.284661687505e-01
      7.495000000000e+00     -3.012662724629e-01
      2.797000000000e+00     -2.556307023301e-01
      5.215000000000e-01      1.093793361012e+00
 s           1
      1.596000000000e-01      1.000000000000e+00
 s           1
      4.690000000000e-02      1.000000000000e+00
 p           3
      9.439000000000e+00      5.697925159004e-02
      2.002000000000e+00      3.132072115007e-01
      5.456000000000e-01      7.603767417375e-01
 p           1
      1.517000000000e-01      1.000000000000e+00
 p           1
      4.041000000000e-02      1.000000000000e+00
 d           1
      5.500000000000e-01      1.000000000000e+00
 d           1
      1.510000000000e-01      1.000000000000e+00

8
 s           8
      6.665000000000e+03      6.915839628130e-04
      1.000000000000e+03      5.325796152934e-03
      2.280000000000e+02      2.706072104203e-02
      6.471000000000e+01      1.016568461408e-01
      2.106000000000e+01      2.745748236174e-01
      7.495000000000e+00      4.482943189238e-01
      2.797000000000e+00      2.849026107152e-01
      5.215000000000e-01      1.519485920608e-02
 s           8
      6.665000000000e+03     -2.932696526865e-04
      1.000000000000e+03     -2.318035473975e-03
      2.280000000000e+02     -1.149978603857e-02
      6.471000000000e+01     -4.682672700979e-02
      2.106000000000e+01     -1.284661687505e-01
      7.495000000000e+00     -3.012662724629e-01
      2.797000000000e+00     -2.556307023301e-01
      5.215000000000e-01      1.093793361012e+00
 s           1
      1.596000000000e-01      1.000000000000e+00
 s           1
      4.690000000000e-02      1.000000000000e+00
 p           3
      9.439000000000e+00      5.697925159004e-02
      2.002000000000e+00      3.132072115007e-01
      5.456000000000e-01      7.603767417375e-01
 p           1
      1.517000000000e-01      1.000000000000e+00
 p           1
      4.041000000000e-02      1.000000000000e+00
 d           1
      5.500000000000e-01      1.000000000000e+00
 d           1
      1.510000000000e-01      1.000000000000e+00

9
 s           8
      6.665000000000e+03      6.915839628130e-04
      1.000000000000e+03      5.325796152934e-03
      2.280000000000e+02      2.706072104203e-02
      6.471000000000e+01      1.016568461408e-01
      2.106000000000e+01      2.745748236174e-01
      7.495000000000e+00      4.482943189238e-01
      2.797000000000e+00      2.849026107152e-01
      5.215000000000e-01      1.519485920608e-02
 s           8
      6.665000000000e+03     -2.932696526865e-04
      1.000000000000e+03     -2.318035473975e-03
      2.280000000000e+02     -1.149978603857e-02
      6.471000000000e+01     -4.682672700979e-02
      2.106000000000e+01     -1.284661687505e-01
      7.495000000000e+00     -3.012662724629e-01
      2.797000000000e+00     -2.556307023301e-01
      5.215000000000e-01      1.093793361012e+00
 s           1
      1.596000000000e-01      1.000000000000e+00
 s           1
      4.690000000000e-02      1.000000000000e+00
 p           3
      9.439000000000e+00      5.697925159004e-02
      2.002000000000e+00      3.132072115007e-01
      5.456000000000e-01      7.603767417375e-01
 p           1
      1.517000000000e-01      1.000000000000e+00
 p           1
      4.041000000000e-02      1.000000000000e+00
 d           1
      5.500000000000e-01      1.000000000000e+00
 d           1
      1.510000000000e-01      1.000000000000e+00

10
 s           8
      6.665000000000e+03      6.915839628130e-04
      1.000000000000e+03      5.325796152934e-03
      2.280000000000e+02      2.706072104203e-02
      6.471000000000e+01      1.016568461408e-01
      2.106000000000e+01      2.745748236174e-01
      7.495000000000e+00      4.482943189238e-01
      2.797000000000e+00      2.849026107152e-01
      5.215000000000e-01      1.519485920608e-02
 s           8
      6.665000000000e+03     -2.932696526865e-04
      1.000000000000e+03     -2.318035473975e-03
      2.280000000000e+02     -1.149978603857e-02
      6.471000000000e+01     -4.682672700979e-02
      2.106000000000e+01     -1.284661687505e-01
      7.495000000000e+00     -3.012662724629e-01
      2.797000000000e+00     -2.556307023301e-01
      5.215000000000e-01      1.093793361012e+00
 s           1
      1.596000000000e-01      1.000000000000e+00
 s           1
      4.690000000000e-02      1.000000000000e+00
 p           3
      9.439000000000e+00      5.697925159004e-02
      2.002000000000e+00      3.132072115007e-01
      5.456000000000e-01      7.603767417375e-01
 p           1
      1.517000000000e-01      1.000000000000e+00
 p           1
      4.041000000000e-02      1.000000000000e+00
 d           1
      5.500000000000e-01      1.000000000000e+00
 d           1
      1.510000000000e-01      1.000000000000e+00

11
 s           3
      1.301000000000e+01      3.349872639000e-02
      1.962000000000e+00      2.348008011741e-01
      4.446000000000e-01      8.136829578829e-01
 s           1
      1.220000000000e-01      1.000000000000e+00
 s           1
      2.974000000000e-02      1.000000000000e+00
 p           1
      7.270000000000e-01      1.000000000000e+00
 p           1
      1.410000000000e-01      1.000000000000e+00

12
 s           3
      1.301000000000e+01      3.349872639000e-02
      1.962000000000e+00      2.348008011741e-01
      4.446000000000e-01      8.136829578829e-01
 s           1
      1.220000000000e-01      1.000000000000e+00
 s           1
      2.974000000000e-02      1.000000000000e+00
 p           1
      7.270000000000e-01      1.000000000000e+00
 p           1
      1.410000000000e-01      1.000000000000e+00

13
 s           3
      1.301000000000e+01      3.349872639000e-02
      1.962000000000e+00      2.348008011741e-01
      4.446000000000e-01      8.136829578829e-01
 s           1
      1.220000000000e-01      1.000000000000e+00
 s           1
      2.974000000000e-02      1.000000000000e+00
 p           1
      7.270000000000e-01      1.000000000000e+00
 p           1
      1.410000000000e-01      1.000000000000e+00

14
 s           3
      1.301000000000e+01      3.349872639000e-02
      1.962000000000e+00      2.348008011741e-01
      4.446000000000e-01      8.136829578829e-01
 s           1
      1.220000000000e-01      1.000000000000e+00
 s           1
      2.974000000000e-02      1.000000000000e+00
 p           1
      7.270000000000e-01      1.000000000000e+00
 p           1
      1.410000000000e-01      1.000000000000e+00

15
 s           3
      1.301000000000e+01      3.349872639000e-02
      1.962000000000e+00      2.348008011741e-01
      4.446000000000e-01      8.136829578829e-01
 s           1
      1.220000000000e-01      1.000000000000e+00
 s           1
      2.974000000000e-02      1.000000000000e+00
 p           1
      7.270000000000e-01      1.000000000000e+00
 p           1
      1.410000000000e-01      1.000000000000e+00

16
 s           3
      1.301000000000e+01      3.349872639000e-02
      1.962000000000e+00      2.348008011741e-01
      4.446000000000e-01      8.136829578829e-01
 s           1
      1.220000000000e-01      1.000000000000e+00
 s           1
      2.974000000000e-02      1.000000000000e+00
 p           1
      7.270000000000e-01      1.000000000000e+00
 p           1
      1.410000000000e-01      1.000000000000e+00

17
 s           3
      1.301000000000e+01      3.349872639000e-02
      1.962000000000e+00      2.348008011741e-01
      4.446000000000e-01      8.136829578829e-01
 s           1
      1.220000000000e-01      1.000000000000e+00
 s           1
      2.974000000000e-02      1.000000000000e+00
 p           1
      7.270000000000e-01      1.000000000000e+00
 p           1
      1.410000000000e-01      1.000000000000e+00

18
 s           3
      1.301000000000e+01      3.349872639000e-02
      1.962000000000e+00      2.348008011741e-01
      4.446000000000e-01      8.136829578829e-01
 s           1
      1.220000000000e-01      1.000000000000e+00
 s           1
      2.974000000000e-02      1.000000000000e+00
 p           1
      7.270000000000e-01      1.000000000000e+00
 p           1
      1.410000000000e-01      1.000000000000e+00


[5D]
[7F]
[9G]
[MO]
 Ene=  -15.596174
 Spin=  Alpha
 Occup=    2.000000
   1    -0.0000433076502443
   2    -0.0000842078020327
   3     0.0021986488981517
   4     0.0076937365197707
   5     0.0000175056664606
   6    -0.0000126544273775
   7     0.0000024337202275
   8    -0.0001961216027659
   9     0.0047810151571317
  10     0.0000342929767917
  11    -0.0033155185800723
  12    -0.0043111620452015
  13    -0.0014241279751434
  14     0.0000125008430769
  15    -0.0000226039301893
  16     0.0000152164743671
  17    -0.0000226113241786
  18     0.0000344815437264
  19    -0.0001474971897540
  20    -0.0000270112793319
  21    -0.0005579063461396
  22    -0.0002463751553526
  23    -0.0014077339690364
  24    -0.0000203329609807
  25    -0.0000548078518353
  26     0.0035080652021863
  27    -0.0090061632281602
  28     0.0001241281805252
  29    -0.0000304117134620
  30     0.0000338616243528
  31    -0.0011975085150561
  32     0.0059441766946648
  33    -0.0006005488470008
  34     0.0045184656692997
  35    -0.0020393449669942
  36     0.0018218679727303
  37    -0.0000261853120915
  38    -0.0000238804732073
  39     0.0000165320980544
  40    -0.0000866250931430
  41     0.0000347041693953
  42     0.0005964381131128
  43     0.0001869062491538
  44    -0.0006303348162851
  45     0.0013442796099463
  46    -0.0011745020904111
  47     0.0003439028602118
  48     0.0005189615886643
  49     0.0048033635135090
  50     0.0230689575244615
  51    -0.0002721347709544
  52    -0.0002309241737169
  53    -0.0001624011596840
  54    -0.0086221315997524
  55    -0.0057040063038491
  56    -0.0036966167268636
  57     0.0016102582281998
  58    -0.0040704440045482
  59     0.0007942938882557
  60    -0.0000433721407034
  61    -0.0000821742311574
  62    -0.0001588736192328
  63    -0.0001431825760563
  64    -0.0003002873465918
  65    -0.0010405036003929
  66     0.0002368576002205
  67     0.0017146317012170
  68    -0.0014974124994728
  69     0.0040199184551693
  70     1.0031701553082031
  71     0.0056108979682484
  72    -0.0262300172510481
  73    -0.0109736414598148
  74     0.0001559492745654
  75     0.0006550264064168
  76    -0.0002665118719040
  77     0.0008921542764565
  78    -0.0027967352667920
  79     0.0012346957775158
  80    -0.0022846106477336
  81    -0.0034001790589177
  82    -0.0009183130650588
  83    -0.0001615367798848
  84     0.0001692957179439
  85     0.0001398518397745
  86    -0.0000131205982658
  87     0.0002364956116091
  88     0.0005038629839376
  89    -0.0021587877227401
  90    -0.0010594182884462
  91    -0.0015993858115184
  92    -0.0017306662026955
  93     0.0001762227111297
  94     0.0003394797160739
  95    -0.0012369813133274
  96    -0.0040204489293512
  97    -0.0000874486306025
  98     0.0002631354876946
  99    -0.0001090088800739
 100     0.0010548196547605
 101    -0.0030969896015614
 102     0.0000182817745946
 103    -0.0002421681484588
 104    -0.0001508587791173
 105     0.0000468052540269
 106    -0.0000254712747828
 107     0.0000545228429821
 108    -0.0001136953427003
 109     0.0000416209817196
 110    -0.0001569075383503
 111     0.0002573593024810
 112     0.0012206481391723
 113    -0.0009849934689626
 114     0.0019700447942187
 115    -0.0018212957622849
 116     0.0000180395283694
 117     0.0000098104379008
 118     0.0007132819474766
 119    -0.0116453657149327
 120     0.0000243661759942
 121    -0.0000431683484691
 122     0.0000010241154867
 123     0.0023773190125528
 124     0.0007642010267467
 125     0.0009143352143154
 126    -0.0027261702568490
 127    -0.0019242336482971
 128    -0.0013473438692188
 129     0.0000520747665593
 130    -0.0000339529587144
 131     0.0000136314822814
 132     0.0000039145221785
 133     0.0000511603878049
 134    -0.0001367966735554
 135     0.0003845562552941
 136     0.0002286725859472
 137     0.0005565306346254
 138     0.0004012333607332
 139    -0.0000187377156628
 140    -0.0000182402445974
 141    -0.0034142860537112
 142     0.0071085608842799
 143    -0.0000394435381225
 144    -0.0001015935184235
 145     0.0000331031846494
 146    -0.0013363293727478
 147    -0.0021234487073657
 148    -0.0017276469033249
 149     0.0000441320298538
 150     0.0012606932981688
 151     0.0009069346091000
 152    -0.0000272478940440
 153     0.0000643158635342
 154     0.0000079360841868
 155     0.0000534825020522
 156     0.0000271412155487
 157     0.0002142781363181
 158     0.0000570404878849
 159    -0.0005389043022662
 160     0.0000306149955933
 161    -0.0008071966421294
 162     0.0001190879008364
 163     0.0001958274250921
 164    -0.0034655454525614
 165    -0.0029169521488034
 166     0.0000607442768164
 167    -0.0000325026223356
 168    -0.0000243382960411
 169    -0.0002461162078464
 170    -0.0026726740830305
 171     0.0005138521675645
 172    -0.0010336951746053
 173    -0.0003799501294905
 174     0.0001693240824281
 175     0.0000702435766009
 176    -0.0000023020823518
 177    -0.0000232881727143
 178     0.0000006350434252
 179    -0.0000566622578016
 180     0.0000495800880364
 181    -0.0001797693102627
 182     0.0001917115247234
 183     0.0006244719771895
 184     0.0001721833229705
 185     0.0000243427523939
 186     0.0000250078212664
 187     0.0044341413431627
 188     0.0011455027009110
 189    -0.0000177257803235
 190     0.0000077062595150
 191    -0.0000322392578712
 192    -0.0006440059265256
 193    -0.0027795785672617
 194    -0.0008662646775625
 195     0.0001413560360687
 196    -0.0001321104613777
 197    -0.0000467492978172
 198     0.0000989167916507
 199    -0.0000077903463389
 200    -0.0000236664226886
 201    -0.0001631875216797
 202     0.0000596182721931
 203    -0.0002481663461999
 204    -0.0000468084700815
 205     0.0004882744992359
 206    -0.0011884882808746
 207     0.0004782412675285
 208    -0.0001862316558992
 209    -0.0002914824292470
 210     0.0095654056139601
 211    -0.0026264557544696
 212     0.0003157308838643
 213     0.0000729018785259
 214     0.0002664319613738
 215     0.0068481402331467
 216    -0.0038987225509508
 217     0.0073245428571271
 218     0.0002167046885426
 219     0.0009388547618343
 220     0.0007896440836659
 221     0.0000366578354677
 222     0.0000156337880415
 223    -0.0000859047731196
 224     0.0001586533384187
 225     0.0000405470345737
 226     0.0007142376269452
 227     0.0035321718682172
 228    -0.0015442301732353
 229    -0.0004623172792840
 230    -0.0018931004664820
 231     0.0000094507679258
 232    -0.0002603213073516
 233     0.0004765683020914
 234    -0.0000206063706115
 235    -0.0000000226080093
 236    -0.0000088940293827
 237     0.0000786868618710
 238     0.0002991970404869
 239     0.0000358741342840
 240    -0.0000405800482648
 241    -0.0020147693929698
 242    -0.0004641276842134
 243     0.0000393657509099
 244     0.0000069750479803
 245     0.0000187098117053
 246     0.0006620838324095
 247     0.0005294837307207
 248     0.0003624082700500
 249    -0.0003166088343047
 250     0.0011999295673597
 251     0.0013584175986313
 252     0.0000450015706172
 253     0.0001989404645372
 254     0.0000234177305446
 255    -0.0011364347723108
 256    -0.0007070107701995
 257    -0.0005040619678022
 258     0.0000608618357454
 259     0.0003459992732705
 260    -0.0005953029212026
 261    -0.0000139684389857
 262     0.0000180632556946
 263     0.0000001192202234
 264    -0.0001176662224764
 265    -0.0001241501728436
 266     0.0000204097922334
 267     0.0000435662327430
 268    -0.0021145419591540
 269     0.0008053665218319
 270     0.0000416947658271
 271     0.0000280048218792
 272     0.0000192913209268
 273     0.0000527371937039
 274    -0.0003339740316324
 275    -0.0003930629135273
 276     0.0000060759527779
 277    -0.0016258837359544
 278    -0.0004719058471975
 279     0.0000306352314936
 280     0.0000180662621385
 281    -0.0000282358082870
 282    -0.0003163121869280
 283    -0.0002872537609708
 284     0.0001483820599634
 285    -0.0000268995766424
 286     0.0012358367049173
 287    -0.0001358917829141
 288    -0.0000132605689182
 289    -0.0000335730406218
 290    -0.0000267989075448
 291     0.0001388477747460
 292    -0.0005367551077017
 293    -0.0002480614277708
 294    -0.0001774028331541
 295     0.0032473451467524
 296     0.0003701582862144
 297    -0.0000131413989607
 298     0.0000505988723260
 299    -0.0001535561774377
 300     0.0008489495894669
 301    -0.0005214862905488
 302     0.0006859285183722
 Ene=  -11.286373
 Spin=  Alpha
 Occup=    2.000000
   1    -0.0001000742831522
   2    -0.0001517057467955
   3     0.0055615953290172
   4    -0.0010632844604868
   5    -0.0000048640651829
   6     0.0000130939391235
   7    -0.0000096546841264
   8    -0.0018923714468502
   9     0.0048327420515972
  10    -0.0005558840507481
  11    -0.0006090293057742
  12     0.0001112118695268
  13    -0.0003511865551409
  14    -0.0000627160806992
  15     0.0000482178972330
  16    -0.0000143118406944
  17     0.0000083184908588
  18    -0.0000152815684671
  19     0.0000781572061624
  20    -0.0000602074413442
  21    -0.0003359357282411
  22     0.0000350853816967
  23    -0.0008779249444355
  24     0.0021578902764990
  25     0.0000478619649282
  26     0.0050950860147002
  27    -0.0050485908207962
  28    -0.0000101328203248
  29    -0.0000374414542942
  30    -0.0000086066022049
  31    -0.0056189074983161
  32     0.0057510727931917
  33    -0.0017517977165317
  34     0.0006072789417031
  35    -0.0016038871192300
  36     0.0003768500247779
  37     0.0000183811261433
  38    -0.0000012660117035
  39     0.0000174460789437
  40     0.0000681263048553
  41     0.0000545482177314
  42     0.0003315408942440
  43     0.0005246431538660
  44    -0.0007519888106876
  45     0.0023855174214049
  46    -0.0015476640264074
  47     0.1811391398888871
  48     0.0015156693969622
  49    -0.0099220596080642
  50     0.0056469055151978
  51    -0.0002301059837648
  52    -0.0001545538987829
  53    -0.0001582476178544
  54    -0.0077011631479618
  55     0.0025723694332860
  56    -0.0043562625304813
  57     0.0026317158477057
  58    -0.0016106742782387
  59     0.0013016165142647
  60     0.0000129489744017
  61     0.0001818300751510
  62     0.0000774537269131
  63     0.0001573840358599
  64    -0.0000079616554288
  65     0.0003111463134016
  66    -0.0001326113104038
  67     0.0016583925091139
  68     0.0006700832152935
  69     0.0020203384589374
  70    -0.0000448419492175
  71    -0.0003171998274993
  72    -0.0027824114501720
  73    -0.0118141255488551
  74     0.0004122671539912
  75     0.0000197521144876
  76     0.0002196700881093
  77    -0.0010493795753547
  78    -0.0010272652828596
  79    -0.0010186630768029
  80    -0.0026724212490927
  81     0.0016670091171521
  82    -0.0018435780411647
  83     0.0000309839563800
  84     0.0000548875965950
  85     0.0000188688892815
  86     0.0000127685215771
  87     0.0000676688636172
  88     0.0005137995092616
  89     0.0014774178265869
  90    -0.0001165247159550
  91     0.0009831663348204
  92    -0.0009329634426424
  93     0.0004519258143945
  94     0.0007371038077729
  95    -0.0039695968791071
  96    -0.0003797965928301
  97    -0.0000953399202385