ACID calculation from xyz coordinates                                   
SP        RwB97XD                                                     Aug-CC-pVDZ         
Number of atoms                            I               18
Info1-9                                    I   N=           9
          12           8           0           0           0         111
           1          18        -802
Full Title                                 C   N=           4
ACID calculation from xyz coordinates           
Route                                      C   N=           9
#p wb97xD/aug-cc-pvdz Geom=AllCheck Guess=Read NMR=CSGT IOp(
10/93=1) SCF=(Tight,MaxCycle=512) Int=UltraFine 
Charge                                     I                0
Multiplicity                               I                1
Number of electrons                        I               68
Number of alpha electrons                  I               34
Number of beta electrons                   I               34
Number of basis functions                  I              302
Number of independent functions            I              301
Number of point charges in /Mol/           I                0
Number of translation vectors              I                0
Atomic numbers                             I   N=          18
           6           6           6           6           6           6
           6           6           6           6           1           1
           1           1           1           1           1           1
Nuclear charges                            R   N=          18
  6.00000000E+00  6.00000000E+00  6.00000000E+00  6.00000000E+00  6.00000000E+00
  6.00000000E+00  6.00000000E+00  6.00000000E+00  6.00000000E+00  6.00000000E+00
  1.00000000E+00  1.00000000E+00  1.00000000E+00  1.00000000E+00  1.00000000E+00
  1.00000000E+00  1.00000000E+00  1.00000000E+00
Current cartesian coordinates              R   N=          54
 -4.59166470E+00 -1.33979972E+00  5.52551912E-04 -4.59165228E+00  1.33975723E+00
  2.90575515E-04 -2.35133189E+00  2.64721675E+00 -9.35945527E-05  9.50935333E-07
  1.34527994E+00 -1.95888042E-04 -1.16425588E-06 -1.34512035E+00  2.15919010E-04
 -2.35119403E+00 -2.64722255E+00  5.40436495E-04  2.35119948E+00 -2.64722556E+00
  7.89562865E-05  4.59166468E+00 -1.33979972E+00 -2.86226361E-04  4.59165297E+00
  1.33975702E+00 -5.45378705E-04  2.35132706E+00  2.64721307E+00 -5.49181707E-04
 -6.38244565E+00 -2.35765831E+00  7.96865789E-04 -6.38254415E+00  2.35748548E+00
  3.24527157E-04 -2.34593103E+00  4.70866980E+00 -3.83383287E-04 -2.34598100E+00
 -4.70866076E+00  7.39429151E-04  2.34595011E+00 -4.70866306E+00  3.52028633E-04
  6.38244451E+00 -2.35766194E+00 -3.22225184E-04  6.38254411E+00  2.35748514E+00
 -7.90459868E-04  2.34595670E+00  4.70866702E+00 -7.65801491E-04
Number of symbols in /Mol/                 I                0
Force Field                                I                0
Atom Types                                 C   N=          18
                                                            
                                                            
                                                            
                                    
Int Atom Types                             I   N=          18
           0           0           0           0           0           0
           0           0           0           0           0           0
           0           0           0           0           0           0
MM charges                                 R   N=          18
  0.00000000E+00  0.00000000E+00  0.00000000E+00  0.00000000E+00  0.00000000E+00
  0.00000000E+00  0.00000000E+00  0.00000000E+00  0.00000000E+00  0.00000000E+00
  0.00000000E+00  0.00000000E+00  0.00000000E+00  0.00000000E+00  0.00000000E+00
  0.00000000E+00  0.00000000E+00  0.00000000E+00
Integer atomic weights                     I   N=          18
          12          12          12          12          12          12
          12          12          12          12           1           1
           1           1           1           1           1           1
Real atomic weights                        R   N=          18
  1.20000000E+01  1.20000000E+01  1.20000000E+01  1.20000000E+01  1.20000000E+01
  1.20000000E+01  1.20000000E+01  1.20000000E+01  1.20000000E+01  1.20000000E+01
  1.00782504E+00  1.00782504E+00  1.00782504E+00  1.00782504E+00  1.00782504E+00
  1.00782504E+00  1.00782504E+00  1.00782504E+00
Atom fragment info                         I   N=          18
           0           0           0           0           0           0
           0           0           0           0           0           0
           0           0           0           0           0           0
Atom residue num                           I   N=          18
           0           0           0           0           0           0
           0           0           0           0           0           0
           0           0           0           0           0           0
Nuclear spins                              I   N=          18
           0           0           0           0           0           0
           0           0           0           0           1           1
           1           1           1           1           1           1
Nuclear ZEff                               R   N=          18
 -3.60000000E+00 -3.60000000E+00 -3.60000000E+00 -3.60000000E+00 -3.60000000E+00
 -3.60000000E+00 -3.60000000E+00 -3.60000000E+00 -3.60000000E+00 -3.60000000E+00
 -1.00000000E+00 -1.00000000E+00 -1.00000000E+00 -1.00000000E+00 -1.00000000E+00
 -1.00000000E+00 -1.00000000E+00 -1.00000000E+00
Nuclear ZNuc                               R   N=          18
  6.00000000E+00  6.00000000E+00  6.00000000E+00  6.00000000E+00  6.00000000E+00
  6.00000000E+00  6.00000000E+00  6.00000000E+00  6.00000000E+00  6.00000000E+00
  1.00000000E+00  1.00000000E+00  1.00000000E+00  1.00000000E+00  1.00000000E+00
  1.00000000E+00  1.00000000E+00  1.00000000E+00
Nuclear QMom                               R   N=          18
  0.00000000E+00  0.00000000E+00  0.00000000E+00  0.00000000E+00  0.00000000E+00
  0.00000000E+00  0.00000000E+00  0.00000000E+00  0.00000000E+00  0.00000000E+00
  0.00000000E+00  0.00000000E+00  0.00000000E+00  0.00000000E+00  0.00000000E+00
  0.00000000E+00  0.00000000E+00  0.00000000E+00
Nuclear GFac                               R   N=          18
  0.00000000E+00  0.00000000E+00  0.00000000E+00  0.00000000E+00  0.00000000E+00
  0.00000000E+00  0.00000000E+00  0.00000000E+00  0.00000000E+00  0.00000000E+00
  2.79284600E+00  2.79284600E+00  2.79284600E+00  2.79284600E+00  2.79284600E+00
  2.79284600E+00  2.79284600E+00  2.79284600E+00
MicOpt                                     I   N=          18
          -1          -1          -1          -1          -1          -1
          -1          -1          -1          -1          -1          -1
          -1          -1          -1          -1          -1          -1
Number of residues                         I                0
Number of secondary structures             I                0
Redundant internal dimensions              I   N=           4
          93          19          30          44
Redundant internal coordinate indices      I   N=         372
           1           2           0           0           1           6
           0           0           1          11           0           0
           2           3           0           0           2          12
           0           0           3           4           0           0
           3          13           0           0           4           5
           0           0           4          10           0           0
           5           6           0           0           5           7
           0           0           6          14           0           0
           7           8           0           0           7          15
           0           0           8           9           0           0
           8          16           0           0           9          10
           0           0           9          17           0           0
          10          18           0           0           2           1
           6           0           2           1          11           0
           6           1          11           0           1           2
           3           0           1           2          12           0
           3           2          12           0           2           3
           4           0           2           3          13           0
           4           3          13           0           3           4
           5           0           3           4          10           0
           5           4          10           0           4           5
           6           0           4           5           7           0
           6           5           7           0           1           6
           5           0           1           6          14           0
           5           6          14           0           5           7
           8           0           5           7          15           0
           8           7          15           0           7           8
           9           0           7           8          16           0
           9           8          16           0           8           9
          10           0           8           9          17           0
          10           9          17           0           4          10
           9           0           4          10          18           0
           9          10          18           0           6           1
           2           3           6           1           2          12
          11           1           2           3          11           1
           2          12           2           1           6           5
           2           1           6          14          11           1
           6           5          11           1           6          14
           1           2           3           4           1           2
           3          13          12           2           3           4
          12           2           3          13           2           3
           4           5           2           3           4          10
          13           3           4           5          13           3
           4          10           3           4           5           6
           3           4           5           7          10           4
           5           6          10           4           5           7
           3           4          10           9           3           4
          10          18           5           4          10           9
           5           4          10          18           4           5
           6           1           4           5           6          14
           7           5           6           1           7           5
           6          14           4           5           7           8
           4           5           7          15           6           5
           7           8           6           5           7          15
           5           7           8           9           5           7
           8          16          15           7           8           9
          15           7           8          16           7           8
           9          10           7           8           9          17
          16           8           9          10          16           8
           9          17           8           9          10           4
           8           9          10          18          17           9
          10           4          17           9          10          18
Redundant internal coordinates             R   N=          93
  2.67955696E+00  2.59404381E+00  2.05983800E+00  2.59393253E+00  2.05987002E+00
  2.68771382E+00  2.06146015E+00  2.69040032E+00  2.68770617E+00  2.68767151E+00
  2.68767975E+00  2.06144480E+00  2.59404062E+00  2.06144420E+00  2.67955674E+00
  2.05983881E+00  2.59393553E+00  2.05986934E+00  2.06146095E+00  2.09902650E+00
  2.08765204E+00  2.09650676E+00  2.09907720E+00  2.08756113E+00  2.09654697E+00
  2.10763572E+00  2.10169249E+00  2.07385710E+00  2.07647623E+00  2.13023123E+00
  2.07647785E+00  2.07655689E+00  2.07655487E+00  2.13007354E+00  2.10759807E+00
  2.10155997E+00  2.07402728E+00  2.10759643E+00  2.07400920E+00  2.10157967E+00
  2.09902885E+00  2.09650290E+00  2.08765356E+00  2.09907470E+00  2.08756153E+00
  2.09654907E+00  2.10763792E+00  2.07387193E+00  2.10167546E+00  5.19621460E-05
 -3.14158060E+00 -3.14155909E+00 -6.34071987E-06 -2.18031742E-05 -3.14159140E+00
  3.14158934E+00  1.97436731E-05 -1.70864215E-05  3.14154336E+00 -3.14156963E+00
 -9.18094147E-06 -4.63397172E-05 -3.14157422E+00  3.14157801E+00  5.01371619E-05
  7.50027757E-05  3.14157789E+00 -3.14158041E+00 -7.75200069E-05  3.14155012E+00
 -1.02021385E-05  2.22431116E-05 -3.14153808E+00 -4.16842799E-05  3.14152827E+00
 -3.14154169E+00  2.82626243E-05  6.96985452E-05 -3.14156872E+00  3.14156971E+00
 -6.87146897E-05 -5.35215194E-06  3.14155566E+00 -3.14155151E+00  9.49882115E-06
 -5.18105618E-05  3.14156799E+00  3.14157232E+00  6.81333496E-06  4.27139934E-05
 -3.14158279E+00 -3.14157722E+00 -1.74157413E-05
ZRed-IntVec                                I   N=          93
           0           0           0           0           0           0
           0           0           0           0           0           0
           0           0           0           0           0           0
           0           0           0           0           0           0
           0           0           0           0           0           0
           0           0           0           0           0           0
           0           0           0           0           0           0
           0           0           0           0           0           0
           0           0           0           0           0           0
           0           0           0           0           0           0
           0           0           0           0           0           0
           0           0           0           0           0           0
           0           0           0           0           0           0
           0           0           0           0           0           0
           0           0           0           0           0           0
           0           0           0
ZRed-FPVec                                 R   N=          93
  0.00000000E+00  0.00000000E+00  0.00000000E+00  0.00000000E+00  0.00000000E+00
  0.00000000E+00  0.00000000E+00  0.00000000E+00  0.00000000E+00  0.00000000E+00
  0.00000000E+00  0.00000000E+00  0.00000000E+00  0.00000000E+00  0.00000000E+00
  0.00000000E+00  0.00000000E+00  0.00000000E+00  0.00000000E+00  0.00000000E+00
  0.00000000E+00  0.00000000E+00  0.00000000E+00  0.00000000E+00  0.00000000E+00
  0.00000000E+00  0.00000000E+00  0.00000000E+00  0.00000000E+00  0.00000000E+00
  0.00000000E+00  0.00000000E+00  0.00000000E+00  0.00000000E+00  0.00000000E+00
  0.00000000E+00  0.00000000E+00  0.00000000E+00  0.00000000E+00  0.00000000E+00
  0.00000000E+00  0.00000000E+00  0.00000000E+00  0.00000000E+00  0.00000000E+00
  0.00000000E+00  0.00000000E+00  0.00000000E+00  0.00000000E+00  0.00000000E+00
  0.00000000E+00  0.00000000E+00  0.00000000E+00  0.00000000E+00  0.00000000E+00
  0.00000000E+00  0.00000000E+00  0.00000000E+00  0.00000000E+00  0.00000000E+00
  0.00000000E+00  0.00000000E+00  0.00000000E+00  0.00000000E+00  0.00000000E+00
  0.00000000E+00  0.00000000E+00  0.00000000E+00  0.00000000E+00  0.00000000E+00
  0.00000000E+00  0.00000000E+00  0.00000000E+00  0.00000000E+00  0.00000000E+00
  0.00000000E+00  0.00000000E+00  0.00000000E+00  0.00000000E+00  0.00000000E+00
  0.00000000E+00  0.00000000E+00  0.00000000E+00  0.00000000E+00  0.00000000E+00
  0.00000000E+00  0.00000000E+00  0.00000000E+00  0.00000000E+00  0.00000000E+00
  0.00000000E+00  0.00000000E+00  0.00000000E+00
ZRed-Constraint1                           R   N=          93
  2.67955696E+00  2.59404381E+00  2.05983800E+00  2.59393253E+00  2.05987002E+00
  2.68771382E+00  2.06146015E+00  2.69040032E+00  2.68770617E+00  2.68767151E+00
  2.68767975E+00  2.06144480E+00  2.59404062E+00  2.06144420E+00  2.67955674E+00
  2.05983881E+00  2.59393553E+00  2.05986934E+00  2.06146095E+00  2.09902650E+00
  2.08765204E+00  2.09650676E+00  2.09907720E+00  2.08756113E+00  2.09654697E+00
  2.10763572E+00  2.10169249E+00  2.07385710E+00  2.07647623E+00  2.13023123E+00
  2.07647785E+00  2.07655689E+00  2.07655487E+00  2.13007354E+00  2.10759807E+00
  2.10155997E+00  2.07402728E+00  2.10759643E+00  2.07400920E+00  2.10157967E+00
  2.09902885E+00  2.09650290E+00  2.08765356E+00  2.09907470E+00  2.08756153E+00
  2.09654907E+00  2.10763792E+00  2.07387193E+00  2.10167546E+00  5.19621439E-05
 -3.14158060E+00 -3.14155909E+00 -6.34071987E-06 -2.18031843E-05 -3.14159140E+00
  3.14158934E+00  1.97436787E-05 -1.70864280E-05  3.14154336E+00 -3.14156963E+00
 -9.18095357E-06 -4.63397172E-05 -3.14157422E+00  3.14157801E+00  5.01371596E-05
  7.50027757E-05  3.14157789E+00 -3.14158041E+00 -7.75200069E-05  3.14155012E+00
 -1.02021385E-05  2.22431116E-05 -3.14153808E+00 -4.16842746E-05  3.14152827E+00
 -3.14154169E+00  2.82626283E-05  6.96985452E-05 -3.14156872E+00  3.14156971E+00
 -6.87146913E-05 -5.35215194E-06  3.14155566E+00 -3.14155151E+00  9.49880946E-06
 -5.18105618E-05  3.14156799E+00  3.14157232E+00  6.81331867E-06  4.27139960E-05
 -3.14158279E+00 -3.14157722E+00 -1.74157413E-05
ZRed-Constraint2                           R   N=          93
  2.68040785E+00  2.59254894E+00  2.06081139E+00  2.59232900E+00  2.06087246E+00
  2.68885282E+00  2.06229675E+00  2.68751073E+00  2.68881704E+00  2.68888151E+00
  2.68891953E+00  2.06227444E+00  2.59253304E+00  2.06226856E+00  2.68040425E+00
  2.06082449E+00  2.59234457E+00  2.06085685E+00  2.06230080E+00  2.09868872E+00
  2.08862660E+00  2.09586999E+00  2.09915703E+00  2.08794038E+00  2.09608789E+00
  2.10769224E+00  2.10198541E+00  2.07350765E+00  2.07637320E+00  2.13043811E+00
  2.07637400E+00  2.07685686E+00  2.07685312E+00  2.12947531E+00  2.10760255E+00
  2.10121085E+00  2.07437189E+00  2.10759420E+00  2.07431824E+00  2.10127286E+00
  2.09869690E+00  2.09585202E+00  2.08863638E+00  2.09914793E+00  2.08793527E+00
  2.09610211E+00  2.10770445E+00  2.07354807E+00  2.10193277E+00 -1.77879219E-04
 -3.14158246E+00  3.14145615E+00  5.15636312E-05  1.27157921E-04  3.14153229E+00
 -3.14150704E+00 -1.01915618E-04  5.82038631E-05  3.14150848E+00  3.14146191E+00
 -2.73125013E-04  1.07737631E-04  3.14158760E+00 -3.14134482E+00  1.35041240E-04
 -1.55879580E-04 -3.14153802E+00  3.14154602E+00  1.63887120E-04 -3.14148108E+00
 -8.72955911E-05 -1.21889313E-06  3.14139257E+00  3.96437993E-05 -3.14136832E+00
  3.14141515E+00  7.18269976E-06 -1.58404928E-04  3.14132154E+00 -3.14153391E+00
 -5.39709732E-05 -1.10008220E-05 -3.14142755E+00 -3.14148920E+00  2.79560693E-04
  1.77848211E-04 -3.14148249E+00 -3.14159018E+00 -6.52177149E-05 -1.70200009E-04
 -3.14156075E+00  3.14149046E+00  9.99055206E-05
SymInf integers                            I   N=          26
           1           1           1           1           1           0
           0           0           0           0           0           0
           0           0           0           0           0           0
           0           0           0           0           0           0
           0           0
RotTr to input orientation                 R   N=          12
 -9.99966647E-01 -8.16725330E-03  0.00000000E+00 -8.16725330E-03  9.99966647E-01
 -0.00000000E+00 -0.00000000E+00 -0.00000000E+00 -1.00000000E+00 -3.18694490E-07
  1.54767167E-05 -2.05943318E-06
Number of contracted shells                I              130
Number of primitive shells                 I              286
Pure/Cartesian d shells                    I                0
Pure/Cartesian f shells                    I                0
Highest angular momentum                   I                2
Largest degree of contraction              I                7
Shell types                                I   N=         130
           0           0           0           0           1           1
           1          -2          -2           0           0           0
           0           1           1           1          -2          -2
           0           0           0           0           1           1
           1          -2          -2           0           0           0
           0           1           1           1          -2          -2
           0           0           0           0           1           1
           1          -2          -2           0           0           0
           0           1           1           1          -2          -2
           0           0           0           0           1           1
           1          -2          -2           0           0           0
           0           1           1           1          -2          -2
           0           0           0           0           1           1
           1          -2          -2           0           0           0
           0           1           1           1          -2          -2
           0           0           0           1           1           0
           0           0           1           1           0           0
           0           1           1           0           0           0
           1           1           0           0           0           1
           1           0           0           0           1           1
           0           0           0           1           1           0
           0           0           1           1
Number of primitives per shell             I   N=         130
           7           7           1           1           3           1
           1           1           1           7           7           1
           1           3           1           1           1           1
           7           7           1           1           3           1
           1           1           1           7           7           1
           1           3           1           1           1           1
           7           7           1           1           3           1
           1           1           1           7           7           1
           1           3           1           1           1           1
           7           7           1           1           3           1
           1           1           1           7           7           1
           1           3           1           1           1           1
           7           7           1           1           3           1
           1           1           1           7           7           1
           1           3           1           1           1           1
           3           1           1           1           1           3
           1           1           1           1           3           1
           1           1           1           3           1           1
           1           1           3           1           1           1
           1           3           1           1           1           1
           3           1           1           1           1           3
           1           1           1           1
Shell to atom map                          I   N=         130
           1           1           1           1           1           1
           1           1           1           2           2           2
           2           2           2           2           2           2
           3           3           3           3           3           3
           3           3           3           4           4           4
           4           4           4           4           4           4
           5           5           5           5           5           5
           5           5           5           6           6           6
           6           6           6           6           6           6
           7           7           7           7           7           7
           7           7           7           8           8           8
           8           8           8           8           8           8
           9           9           9           9           9           9
           9           9           9          10          10          10
          10          10          10          10          10          10
          11          11          11          11          11          12
          12          12          12          12          13          13
          13          13          13          14          14          14
          14          14          15          15          15          15
          15          16          16          16          16          16
          17          17          17          17          17          18
          18          18          18          18
Primitive exponents                        R   N=         286
  6.66500000E+03  1.00000000E+03  2.28000000E+02  6.47100000E+01  2.10600000E+01
  7.49500000E+00  2.79700000E+00  6.66500000E+03  2.28000000E+02  6.47100000E+01
  2.10600000E+01  7.49500000E+00  2.79700000E+00  5.21500000E-01  1.59600000E-01
  4.69000000E-02  9.43900000E+00  2.00200000E+00  5.45600000E-01  1.51700000E-01
  4.04100000E-02  5.50000000E-01  1.51000000E-01  6.66500000E+03  1.00000000E+03
  2.28000000E+02  6.47100000E+01  2.10600000E+01  7.49500000E+00  2.79700000E+00
  6.66500000E+03  2.28000000E+02  6.47100000E+01  2.10600000E+01  7.49500000E+00
  2.79700000E+00  5.21500000E-01  1.59600000E-01  4.69000000E-02  9.43900000E+00
  2.00200000E+00  5.45600000E-01  1.51700000E-01  4.04100000E-02  5.50000000E-01
  1.51000000E-01  6.66500000E+03  1.00000000E+03  2.28000000E+02  6.47100000E+01
  2.10600000E+01  7.49500000E+00  2.79700000E+00  6.66500000E+03  2.28000000E+02
  6.47100000E+01  2.10600000E+01  7.49500000E+00  2.79700000E+00  5.21500000E-01
  1.59600000E-01  4.69000000E-02  9.43900000E+00  2.00200000E+00  5.45600000E-01
  1.51700000E-01  4.04100000E-02  5.50000000E-01  1.51000000E-01  6.66500000E+03
  1.00000000E+03  2.28000000E+02  6.47100000E+01  2.10600000E+01  7.49500000E+00
  2.79700000E+00  6.66500000E+03  2.28000000E+02  6.47100000E+01  2.10600000E+01
  7.49500000E+00  2.79700000E+00  5.21500000E-01  1.59600000E-01  4.69000000E-02
  9.43900000E+00  2.00200000E+00  5.45600000E-01  1.51700000E-01  4.04100000E-02
  5.50000000E-01  1.51000000E-01  6.66500000E+03  1.00000000E+03  2.28000000E+02
  6.47100000E+01  2.10600000E+01  7.49500000E+00  2.79700000E+00  6.66500000E+03
  2.28000000E+02  6.47100000E+01  2.10600000E+01  7.49500000E+00  2.79700000E+00
  5.21500000E-01  1.59600000E-01  4.69000000E-02  9.43900000E+00  2.00200000E+00
  5.45600000E-01  1.51700000E-01  4.04100000E-02  5.50000000E-01  1.51000000E-01
  6.66500000E+03  1.00000000E+03  2.28000000E+02  6.47100000E+01  2.10600000E+01
  7.49500000E+00  2.79700000E+00  6.66500000E+03  2.28000000E+02  6.47100000E+01
  2.10600000E+01  7.49500000E+00  2.79700000E+00  5.21500000E-01  1.59600000E-01
  4.69000000E-02  9.43900000E+00  2.00200000E+00  5.45600000E-01  1.51700000E-01
  4.04100000E-02  5.50000000E-01  1.51000000E-01  6.66500000E+03  1.00000000E+03
  2.28000000E+02  6.47100000E+01  2.10600000E+01  7.49500000E+00  2.79700000E+00
  6.66500000E+03  2.28000000E+02  6.47100000E+01  2.10600000E+01  7.49500000E+00
  2.79700000E+00  5.21500000E-01  1.59600000E-01  4.69000000E-02  9.43900000E+00
  2.00200000E+00  5.45600000E-01  1.51700000E-01  4.04100000E-02  5.50000000E-01
  1.51000000E-01  6.66500000E+03  1.00000000E+03  2.28000000E+02  6.47100000E+01
  2.10600000E+01  7.49500000E+00  2.79700000E+00  6.66500000E+03  2.28000000E+02
  6.47100000E+01  2.10600000E+01  7.49500000E+00  2.79700000E+00  5.21500000E-01
  1.59600000E-01  4.69000000E-02  9.43900000E+00  2.00200000E+00  5.45600000E-01
  1.51700000E-01  4.04100000E-02  5.50000000E-01  1.51000000E-01  6.66500000E+03
  1.00000000E+03  2.28000000E+02  6.47100000E+01  2.10600000E+01  7.49500000E+00
  2.79700000E+00  6.66500000E+03  2.28000000E+02  6.47100000E+01  2.10600000E+01
  7.49500000E+00  2.79700000E+00  5.21500000E-01  1.59600000E-01  4.69000000E-02
  9.43900000E+00  2.00200000E+00  5.45600000E-01  1.51700000E-01  4.04100000E-02
  5.50000000E-01  1.51000000E-01  6.66500000E+03  1.00000000E+03  2.28000000E+02
  6.47100000E+01  2.10600000E+01  7.49500000E+00  2.79700000E+00  6.66500000E+03
  2.28000000E+02  6.47100000E+01  2.10600000E+01  7.49500000E+00  2.79700000E+00
  5.21500000E-01  1.59600000E-01  4.69000000E-02  9.43900000E+00  2.00200000E+00
  5.45600000E-01  1.51700000E-01  4.04100000E-02  5.50000000E-01  1.51000000E-01
  1.30100000E+01  1.96200000E+00  4.44600000E-01  1.22000000E-01  2.97400000E-02
  7.27000000E-01  1.41000000E-01  1.30100000E+01  1.96200000E+00  4.44600000E-01
  1.22000000E-01  2.97400000E-02  7.27000000E-01  1.41000000E-01  1.30100000E+01
  1.96200000E+00  4.44600000E-01  1.22000000E-01  2.97400000E-02  7.27000000E-01
  1.41000000E-01  1.30100000E+01  1.96200000E+00  4.44600000E-01  1.22000000E-01
  2.97400000E-02  7.27000000E-01  1.41000000E-01  1.30100000E+01  1.96200000E+00
  4.44600000E-01  1.22000000E-01  2.97400000E-02  7.27000000E-01  1.41000000E-01
  1.30100000E+01  1.96200000E+00  4.44600000E-01  1.22000000E-01  2.97400000E-02
  7.27000000E-01  1.41000000E-01  1.30100000E+01  1.96200000E+00  4.44600000E-01
  1.22000000E-01  2.97400000E-02  7.27000000E-01  1.41000000E-01  1.30100000E+01
  1.96200000E+00  4.44600000E-01  1.22000000E-01  2.97400000E-02  7.27000000E-01
  1.41000000E-01