ACID calculation from xyz coordinates                                   
SP        RwB97XD                                                     Aug-CC-pVDZ         
Number of atoms                            I               18
Info1-9                                    I   N=           9
          12           8           0           0           0         111
           1          18        -802
Full Title                                 C   N=           4
ACID calculation from xyz coordinates           
Route                                      C   N=           9
#p wb97xD/aug-cc-pvdz Geom=AllCheck Guess=Read NMR=CSGT IOp(
10/93=1) SCF=(Tight,MaxCycle=512) Int=UltraFine 
Charge                                     I                0
Multiplicity                               I                1
Number of electrons                        I               68
Number of alpha electrons                  I               34
Number of beta electrons                   I               34
Number of basis functions                  I              302
Number of independent functions            I              302
Number of point charges in /Mol/           I                0
Number of translation vectors              I                0
Atomic numbers                             I   N=          18
           6           6           6           6           6           6
           6           6           6           6           1           1
           1           1           1           1           1           1
Nuclear charges                            R   N=          18
  6.00000000E+00  6.00000000E+00  6.00000000E+00  6.00000000E+00  6.00000000E+00
  6.00000000E+00  6.00000000E+00  6.00000000E+00  6.00000000E+00  6.00000000E+00
  1.00000000E+00  1.00000000E+00  1.00000000E+00  1.00000000E+00  1.00000000E+00
  1.00000000E+00  1.00000000E+00  1.00000000E+00
Current cartesian coordinates              R   N=          54
  4.53082152E+00  1.32254579E+00 -4.53153598E-01  4.53068946E+00 -1.32271318E+00
 -4.53458565E-01  2.32960687E+00 -2.71852258E+00  4.06131427E-02  1.72600331E-01
 -1.31751368E+00  5.24930386E-01  1.72815068E-01  1.31712814E+00  5.24875508E-01
  2.32965490E+00  2.71841004E+00  4.09969142E-02 -2.65000842E+00  1.49785928E+00
  1.11427837E+00 -4.40955907E+00  1.26709547E+00 -1.15561554E+00 -4.41008782E+00
 -1.26700124E+00 -1.15493626E+00 -2.65036645E+00 -1.49742302E+00  1.11464042E+00
  6.29319518E+00  2.31731706E+00 -8.42769547E-01  6.29317009E+00 -2.31723058E+00
 -8.43303873E-01  2.36270943E+00 -4.77814662E+00  5.00488829E-02  2.36309158E+00
  4.77800368E+00  5.02929061E-02 -3.26139144E+00  2.58622369E+00  2.76441300E+00
 -5.23214964E+00  2.68340790E+00 -2.40237826E+00 -5.23386510E+00 -2.68359587E+00
 -2.40056997E+00 -3.26175843E+00 -2.58516936E+00  2.76524218E+00
Number of symbols in /Mol/                 I                0
Force Field                                I                0
Atom Types                                 C   N=          18
                                                            
                                                            
                                                            
                                    
Int Atom Types                             I   N=          18
           0           0           0           0           0           0
           0           0           0           0           0           0
           0           0           0           0           0           0
MM charges                                 R   N=          18
  0.00000000E+00  0.00000000E+00  0.00000000E+00  0.00000000E+00  0.00000000E+00
  0.00000000E+00  0.00000000E+00  0.00000000E+00  0.00000000E+00  0.00000000E+00
  0.00000000E+00  0.00000000E+00  0.00000000E+00  0.00000000E+00  0.00000000E+00
  0.00000000E+00  0.00000000E+00  0.00000000E+00
Integer atomic weights                     I   N=          18
          12          12          12          12          12          12
          12          12          12          12           1           1
           1           1           1           1           1           1
Real atomic weights                        R   N=          18
  1.20000000E+01  1.20000000E+01  1.20000000E+01  1.20000000E+01  1.20000000E+01
  1.20000000E+01  1.20000000E+01  1.20000000E+01  1.20000000E+01  1.20000000E+01
  1.00782504E+00  1.00782504E+00  1.00782504E+00  1.00782504E+00  1.00782504E+00
  1.00782504E+00  1.00782504E+00  1.00782504E+00
Atom fragment info                         I   N=          18
           0           0           0           0           0           0
           0           0           0           0           0           0
           0           0           0           0           0           0
Atom residue num                           I   N=          18
           0           0           0           0           0           0
           0           0           0           0           0           0
           0           0           0           0           0           0
Nuclear spins                              I   N=          18
           0           0           0           0           0           0
           0           0           0           0           1           1
           1           1           1           1           1           1
Nuclear ZEff                               R   N=          18
 -3.60000000E+00 -3.60000000E+00 -3.60000000E+00 -3.60000000E+00 -3.60000000E+00
 -3.60000000E+00 -3.60000000E+00 -3.60000000E+00 -3.60000000E+00 -3.60000000E+00
 -1.00000000E+00 -1.00000000E+00 -1.00000000E+00 -1.00000000E+00 -1.00000000E+00
 -1.00000000E+00 -1.00000000E+00 -1.00000000E+00
Nuclear ZNuc                               R   N=          18
  6.00000000E+00  6.00000000E+00  6.00000000E+00  6.00000000E+00  6.00000000E+00
  6.00000000E+00  6.00000000E+00  6.00000000E+00  6.00000000E+00  6.00000000E+00
  1.00000000E+00  1.00000000E+00  1.00000000E+00  1.00000000E+00  1.00000000E+00
  1.00000000E+00  1.00000000E+00  1.00000000E+00
Nuclear QMom                               R   N=          18
  0.00000000E+00  0.00000000E+00  0.00000000E+00  0.00000000E+00  0.00000000E+00
  0.00000000E+00  0.00000000E+00  0.00000000E+00  0.00000000E+00  0.00000000E+00
  0.00000000E+00  0.00000000E+00  0.00000000E+00  0.00000000E+00  0.00000000E+00
  0.00000000E+00  0.00000000E+00  0.00000000E+00
Nuclear GFac                               R   N=          18
  0.00000000E+00  0.00000000E+00  0.00000000E+00  0.00000000E+00  0.00000000E+00
  0.00000000E+00  0.00000000E+00  0.00000000E+00  0.00000000E+00  0.00000000E+00
  2.79284600E+00  2.79284600E+00  2.79284600E+00  2.79284600E+00  2.79284600E+00
  2.79284600E+00  2.79284600E+00  2.79284600E+00
MicOpt                                     I   N=          18
          -1          -1          -1          -1          -1          -1
          -1          -1          -1          -1          -1          -1
          -1          -1          -1          -1          -1          -1
Number of residues                         I                0
Number of secondary structures             I                0
Redundant internal dimensions              I   N=           4
         117          20          36          61
Redundant internal coordinate indices      I   N=         468
           1           2           0           0           1           6
           0           0           1          11           0           0
           2           3           0           0           2          12
           0           0           3           4           0           0
           3          13           0           0           4           5
           0           0           4          10           0           0
           5           6           0           0           5           7
           0           0           6          14           0           0
           7           8           0           0           7          10
           0           0           7          15           0           0
           8           9           0           0           8          16
           0           0           9          10           0           0
           9          17           0           0          10          18
           0           0           2           1           6           0
           2           1          11           0           6           1
          11           0           1           2           3           0
           1           2          12           0           3           2
          12           0           2           3           4           0
           2           3          13           0           4           3
          13           0           3           4           5           0
           3           4          10           0           5           4
          10           0           4           5           6           0
           4           5           7           0           6           5
           7           0           1           6           5           0
           1           6          14           0           5           6
          14           0           5           7           8           0
           5           7          10           0           5           7
          15           0           8           7          10           0
           8           7          15           0          10           7
          15           0           7           8           9           0
           7           8          16           0           9           8
          16           0           8           9          10           0
           8           9          17           0          10           9
          17           0           4          10           7           0
           4          10           9           0           4          10
          18           0           7          10           9           0
           7          10          18           0           9          10
          18           0           6           1           2           3
           6           1           2          12          11           1
           2           3          11           1           2          12
           2           1           6           5           2           1
           6          14          11           1           6           5
          11           1           6          14           1           2
           3           4           1           2           3          13
          12           2           3           4          12           2
           3          13           2           3           4           5
           2           3           4          10          13           3
           4           5          13           3           4          10
           3           4           5           6           3           4
           5           7          10           4           5           6
          10           4           5           7           3           4
          10           7           3           4          10           9
           3           4          10          18           5           4
          10           7           5           4          10           9
           5           4          10          18           4           5
           6           1           4           5           6          14
           7           5           6           1           7           5
           6          14           4           5           7           8
           4           5           7          10           4           5
           7          15           6           5           7           8
           6           5           7          10           6           5
           7          15           5           7           8           9
           5           7           8          16          10           7
           8           9          10           7           8          16
          15           7           8           9          15           7
           8          16           5           7          10           4
           5           7          10           9           5           7
          10          18           8           7          10           4
           8           7          10           9           8           7
          10          18          15           7          10           4
          15           7          10           9          15           7
          10          18           7           8           9          10
           7           8           9          17          16           8
           9          10          16           8           9          17
           8           9          10           4           8           9
          10           7           8           9          10          18
          17           9          10           4          17           9
          10           7          17           9          10          18
Redundant internal coordinates             R   N=         117
  2.64525899E+00  2.65287697E+00  2.06090547E+00  2.65276371E+00  2.06091781E+00
  2.61726314E+00  2.05991164E+00  2.63464182E+00  2.88950978E+00  2.61719077E+00
  2.88935839E+00  2.05988602E+00  2.88126514E+00  2.99528234E+00  2.06912314E+00
  2.53409685E+00  2.05840069E+00  2.88109212E+00  2.05838595E+00  2.06917337E+00
  2.12486324E+00  2.07453983E+00  2.08377810E+00  2.12491226E+00  2.07434818E+00
  2.08392031E+00  2.02264275E+00  2.11019222E+00  2.15030985E+00  2.13556967E+00
  2.51427185E+00  1.63318360E+00  2.13587886E+00  1.63330376E+00  2.51384446E+00
  2.02250382E+00  2.11001715E+00  2.15062577E+00  2.01629512E+00  1.50834656E+00
  2.07631412E+00  1.49064162E+00  2.08284702E+00  2.12453514E+00  1.65088931E+00
  2.29977993E+00  2.32972351E+00  1.65094306E+00  2.32970192E+00  2.29976993E+00
  1.50835138E+00  2.01636201E+00  2.07625060E+00  1.49071130E+00  2.12447869E+00
  2.08284825E+00 -1.26810692E-04 -3.13845379E+00  3.13835164E+00  2.46674445E-05
  1.22142538E-05  3.13246280E+00 -3.13845017E+00 -5.99958784E-03  8.74664107E-05
 -3.13213636E+00  3.13839698E+00  6.17315213E-03  6.09861275E-05  3.11625737E+00
  3.13204642E+00 -3.49425011E-02 -1.80237902E-04  3.12656396E+00 -3.12683784E+00
 -9.36434912E-05 -3.12000868E+00 -1.66818344E+00  9.88861744E-01  9.03315692E-05
  1.45191558E+00 -2.17422455E+00  1.36773929E-04 -3.13207827E+00 -3.11622194E+00
  3.47483243E-02 -1.45166291E+00  9.03370076E-05  2.17448839E+00  1.66857751E+00
  3.12033075E+00 -9.88456504E-01  1.46300843E+00 -1.60478721E+00  1.61124024E-04
 -3.06763451E+00 -2.16506552E+00  1.05032415E+00 -8.23685486E-05 -2.02449238E+00
  2.13133712E+00  2.02426829E+00 -1.41718350E-04 -2.12749753E+00 -2.13159358E+00
  2.12718172E+00 -1.74094998E-04 -1.67509964E-04 -3.06619854E+00  3.06556186E+00
 -4.69165830E-04 -1.46271676E+00  1.61133496E-04  2.16536493E+00  1.60537144E+00
  3.06824933E+00 -1.04973218E+00
ZRed-IntVec                                I   N=         117
           0           0           0           0           0           0
           0           0           0           0           0           0
           0           0           0           0           0           0
           0           0           0           0           0           0
           0           0           0           0           0           0
           0           0           0           0           0           0
           0           0           0           0           0           0
           0           0           0           0           0           0
           0           0           0           0           0           0
           0           0           0           0           0           0
           0           0           0           0           0           0
           0           0           0           0           0           0
           0           0           0           0           0           0
           0           0           0           0           0           0
           0           0           0           0           0           0
           0           0           0           0           0           0
           0           0           0           0           0           0
           0           0           0           0           0           0
           0           0           0           0           0           0
           0           0           0
ZRed-FPVec                                 R   N=         117
  0.00000000E+00  0.00000000E+00  0.00000000E+00  0.00000000E+00  0.00000000E+00
  0.00000000E+00  0.00000000E+00  0.00000000E+00  0.00000000E+00  0.00000000E+00
  0.00000000E+00  0.00000000E+00  0.00000000E+00  0.00000000E+00  0.00000000E+00
  0.00000000E+00  0.00000000E+00  0.00000000E+00  0.00000000E+00  0.00000000E+00
  0.00000000E+00  0.00000000E+00  0.00000000E+00  0.00000000E+00  0.00000000E+00
  0.00000000E+00  0.00000000E+00  0.00000000E+00  0.00000000E+00  0.00000000E+00
  0.00000000E+00  0.00000000E+00  0.00000000E+00  0.00000000E+00  0.00000000E+00
  0.00000000E+00  0.00000000E+00  0.00000000E+00  0.00000000E+00  0.00000000E+00
  0.00000000E+00  0.00000000E+00  0.00000000E+00  0.00000000E+00  0.00000000E+00
  0.00000000E+00  0.00000000E+00  0.00000000E+00  0.00000000E+00  0.00000000E+00
  0.00000000E+00  0.00000000E+00  0.00000000E+00  0.00000000E+00  0.00000000E+00
  0.00000000E+00  0.00000000E+00  0.00000000E+00  0.00000000E+00  0.00000000E+00
  0.00000000E+00  0.00000000E+00  0.00000000E+00  0.00000000E+00  0.00000000E+00
  0.00000000E+00  0.00000000E+00  0.00000000E+00  0.00000000E+00  0.00000000E+00
  0.00000000E+00  0.00000000E+00  0.00000000E+00  0.00000000E+00  0.00000000E+00
  0.00000000E+00  0.00000000E+00  0.00000000E+00  0.00000000E+00  0.00000000E+00
  0.00000000E+00  0.00000000E+00  0.00000000E+00  0.00000000E+00  0.00000000E+00
  0.00000000E+00  0.00000000E+00  0.00000000E+00  0.00000000E+00  0.00000000E+00
  0.00000000E+00  0.00000000E+00  0.00000000E+00  0.00000000E+00  0.00000000E+00
  0.00000000E+00  0.00000000E+00  0.00000000E+00  0.00000000E+00  0.00000000E+00
  0.00000000E+00  0.00000000E+00  0.00000000E+00  0.00000000E+00  0.00000000E+00
  0.00000000E+00  0.00000000E+00  0.00000000E+00  0.00000000E+00  0.00000000E+00
  0.00000000E+00  0.00000000E+00  0.00000000E+00  0.00000000E+00  0.00000000E+00
  0.00000000E+00  0.00000000E+00
ZRed-Constraint1                           R   N=         117
  2.64525899E+00  2.65287697E+00  2.06090547E+00  2.65276371E+00  2.06091781E+00
  2.61726314E+00  2.05991164E+00  2.63464182E+00  2.88950978E+00  2.61719077E+00
  2.88935839E+00  2.05988602E+00  2.88126514E+00  2.99528234E+00  2.06912314E+00
  2.53409685E+00  2.05840069E+00  2.88109212E+00  2.05838595E+00  2.06917337E+00
  2.12486324E+00  2.07453983E+00  2.08377810E+00  2.12491226E+00  2.07434818E+00
  2.08392031E+00  2.02264275E+00  2.11019222E+00  2.15030985E+00  2.13556967E+00
  2.51427185E+00  1.63318360E+00  2.13587886E+00  1.63330376E+00  2.51384446E+00
  2.02250382E+00  2.11001715E+00  2.15062577E+00  2.01629512E+00  1.50834656E+00
  2.07631412E+00  1.49064162E+00  2.08284702E+00  2.12453514E+00  1.65088931E+00
  2.29977993E+00  2.32972351E+00  1.65094306E+00  2.32970192E+00  2.29976993E+00
  1.50835138E+00  2.01636201E+00  2.07625060E+00  1.49071130E+00  2.12447869E+00
  2.08284825E+00 -1.26810692E-04 -3.13845379E+00  3.13835164E+00  2.46674445E-05
  1.22142538E-05  3.13246280E+00 -3.13845017E+00 -5.99958784E-03  8.74664107E-05
 -3.13213636E+00  3.13839698E+00  6.17315213E-03  6.09861312E-05  3.11625737E+00
  3.13204642E+00 -3.49425011E-02 -1.80237902E-04  3.12656396E+00 -3.12683784E+00
 -9.36434912E-05 -3.12000868E+00 -1.66818344E+00  9.88861744E-01  9.03315692E-05
  1.45191558E+00 -2.17422455E+00  1.36773929E-04 -3.13207827E+00 -3.11622194E+00
  3.47483243E-02 -1.45166291E+00  9.03370076E-05  2.17448839E+00  1.66857751E+00
  3.12033075E+00 -9.88456504E-01  1.46300843E+00 -1.60478721E+00  1.61124025E-04
 -3.06763451E+00 -2.16506552E+00  1.05032415E+00 -8.23685486E-05 -2.02449238E+00
  2.13133712E+00  2.02426829E+00 -1.41718349E-04 -2.12749753E+00 -2.13159358E+00
  2.12718172E+00 -1.74094998E-04 -1.67509965E-04 -3.06619854E+00  3.06556186E+00
 -4.69165830E-04 -1.46271676E+00  1.61133496E-04  2.16536493E+00  1.60537144E+00
  3.06824933E+00 -1.04973218E+00
ZRed-Constraint2                           R   N=         117
  2.64426733E+00  2.65215287E+00  2.06193159E+00  2.65152302E+00  2.06193674E+00
  2.61673500E+00  2.06077172E+00  2.63313304E+00  2.88834748E+00  2.61665644E+00
  2.88824519E+00  2.06073447E+00  2.87924543E+00  2.99073927E+00  2.06957354E+00
  2.53267149E+00  2.05946813E+00  2.87869677E+00  2.05944342E+00  2.06972106E+00
  2.12488172E+00  2.07500872E+00  2.08329057E+00  2.12501366E+00  2.07428484E+00
  2.08388294E+00  2.02260649E+00  2.11094754E+00  2.14958148E+00  2.13556537E+00
  2.51505111E+00  1.63241216E+00  2.13602904E+00  1.63307185E+00  2.51394359E+00
  2.02227360E+00  2.11028598E+00  2.15058139E+00  2.01510684E+00  1.50859434E+00
  2.07678744E+00  1.49096132E+00  2.08303161E+00  2.12465986E+00  1.65045096E+00
  2.30022085E+00  2.32975708E+00  1.65041812E+00  2.32987695E+00  2.30026091E+00
  1.50910687E+00  2.01533239E+00  2.07640286E+00  1.49135488E+00  2.12444959E+00
  2.08290778E+00  1.52244386E-04 -3.13843011E+00  3.13857492E+00 -7.43122866E-06
  6.30555523E-04  3.13242091E+00 -3.13777746E+00 -5.98710383E-03 -1.06007368E-03
 -3.13225751E+00  3.13750614E+00  6.30869978E-03  1.21600224E-03  3.11767993E+00
  3.13215883E+00 -3.45625472E-02 -4.64377188E-04  3.12712017E+00 -3.12729589E+00
  2.88658260E-04 -3.12060515E+00 -1.66757144E+00  9.87777490E-01 -2.78755662E-04
  1.45275495E+00 -2.17508143E+00 -4.86030438E-04 -3.13202574E+00 -3.11826946E+00
  3.33761381E-02 -1.45265137E+00 -2.78785804E-04  2.17456781E+00  1.66879674E+00
  3.12116932E+00 -9.87169389E-01  1.46328922E+00 -1.60497322E+00 -1.47662327E-04
 -3.06841011E+00 -2.16577365E+00  1.04914922E+00  2.54143040E-04 -2.02295744E+00
  2.13237183E+00  2.02334149E+00  1.29910803E-04 -2.12772613E+00 -2.13204369E+00
  2.12793003E+00  7.39886200E-05  1.53406918E-04 -3.06783693E+00  3.06639005E+00
 -1.60028664E-03 -1.46431845E+00 -1.47685445E-04  2.16544051E+00  1.60565597E+00
  3.06982673E+00 -1.04777038E+00
SymInf integers                            I   N=          26
           1           1           1           1           1           0
           0           0           0           0           0           0
           0           0           0           0           0           0
           0           0           0           0           0           0
           0           0
RotTr to input orientation                 R   N=          12
  9.75646133E-01  1.04062577E-05 -2.19350458E-01 -2.94232344E-05 -9.99999984E-01
 -1.78312472E-04 -2.19350456E-01  1.80423874E-04 -9.75646117E-01 -5.30148612E-02
 -6.98042483E-04  5.48507058E-01
Number of contracted shells                I              130
Number of primitive shells                 I              286
Pure/Cartesian d shells                    I                0
Pure/Cartesian f shells                    I                0
Highest angular momentum                   I                2
Largest degree of contraction              I                7
Shell types                                I   N=         130
           0           0           0           0           1           1
           1          -2          -2           0           0           0
           0           1           1           1          -2          -2
           0           0           0           0           1           1
           1          -2          -2           0           0           0
           0           1           1           1          -2          -2
           0           0           0           0           1           1
           1          -2          -2           0           0           0
           0           1           1           1          -2          -2
           0           0           0           0           1           1
           1          -2          -2           0           0           0
           0           1           1           1          -2          -2
           0           0           0           0           1           1
           1          -2          -2           0           0           0
           0           1           1           1          -2          -2
           0           0           0           1           1           0
           0           0           1           1           0           0
           0           1           1           0           0           0
           1           1           0           0           0           1
           1           0           0           0           1           1
           0           0           0           1           1           0
           0           0           1           1
Number of primitives per shell             I   N=         130
           7           7           1           1           3           1
           1           1           1           7           7           1
           1           3           1           1           1           1
           7           7           1           1           3           1
           1           1           1           7           7           1
           1           3           1           1           1           1
           7           7           1           1           3           1
           1           1           1           7           7           1
           1           3           1           1           1           1
           7           7           1           1           3           1
           1           1           1           7           7           1
           1           3           1           1           1           1
           7           7           1           1           3           1
           1           1           1           7           7           1
           1           3           1           1           1           1
           3           1           1           1           1           3
           1           1           1           1           3           1
           1           1           1           3           1           1
           1           1           3           1           1           1
           1           3           1           1           1           1
           3           1           1           1           1           3
           1           1           1           1
Shell to atom map                          I   N=         130
           1           1           1           1           1           1
           1           1           1           2           2           2
           2           2           2           2           2           2
           3           3           3           3           3           3
           3           3           3           4           4           4
           4           4           4           4           4           4
           5           5           5           5           5           5
           5           5           5           6           6           6
           6           6           6           6           6           6
           7           7           7           7           7           7
           7           7           7           8           8           8
           8           8           8           8           8           8
           9           9           9           9           9           9
           9           9           9          10          10          10
          10          10          10          10          10          10
          11          11          11          11          11          12
          12          12          12          12          13          13
          13          13          13          14          14          14
          14          14          15          15          15          15
          15          16          16          16          16          16
          17          17          17          17          17          18
          18          18          18          18
Primitive exponents                        R   N=         286
  6.66500000E+03  1.00000000E+03  2.28000000E+02  6.47100000E+01  2.10600000E+01
  7.49500000E+00  2.79700000E+00  6.66500000E+03  2.28000000E+02  6.47100000E+01
  2.10600000E+01  7.49500000E+00  2.79700000E+00  5.21500000E-01  1.59600000E-01
  4.69000000E-02  9.43900000E+00  2.00200000E+00  5.45600000E-01  1.51700000E-01
  4.04100000E-02  5.50000000E-01  1.51000000E-01  6.66500000E+03  1.00000000E+03
  2.28000000E+02  6.47100000E+01  2.10600000E+01  7.49500000E+00  2.79700000E+00
  6.66500000E+03  2.28000000E+02  6.47100000E+01  2.10600000E+01  7.49500000E+00
  2.79700000E+00  5.21500000E-01  1.59600000E-01  4.69000000E-02  9.43900000E+00
  2.00200000E+00  5.45600000E-01  1.51700000E-01  4.04100000E-02  5.50000000E-01
  1.51000000E-01  6.66500000E+03  1.00000000E+03  2.28000000E+02  6.47100000E+01
  2.10600000E+01  7.49500000E+00  2.79700000E+00  6.66500000E+03  2.28000000E+02
  6.47100000E+01  2.10600000E+01  7.49500000E+00  2.79700000E+00  5.21500000E-01
  1.59600000E-01  4.69000000E-02  9.43900000E+00  2.00200000E+00  5.45600000E-01
  1.51700000E-01  4.04100000E-02  5.50000000E-01  1.51000000E-01  6.66500000E+03
  1.00000000E+03  2.28000000E+02  6.47100000E+01  2.10600000E+01  7.49500000E+00
  2.79700000E+00  6.66500000E+03  2.28000000E+02  6.47100000E+01  2.10600000E+01
  7.49500000E+00  2.79700000E+00  5.21500000E-01  1.59600000E-01  4.69000000E-02
  9.43900000E+00  2.00200000E+00  5.45600000E-01  1.51700000E-01  4.04100000E-02
  5.50000000E-01  1.51000000E-01  6.66500000E+03  1.00000000E+03  2.28000000E+02
  6.47100000E+01  2.10600000E+01  7.49500000E+00  2.79700000E+00  6.66500000E+03