[Molden Format]
[Atoms] Angs
 c       1                    6  2.374758393197e+00 -5.527061670159e-01  6.415810124704e-01
 c       2                    6  2.214615856641e+00  8.711287631711e-01  8.560586601985e-01
 c       3                    6  9.908583264040e-01  1.487474954657e+00  7.060446030478e-01
 n       4                    7 -1.497474307330e-01  7.066832821965e-01  4.865615704492e-01
 b       5                    5 -7.522512629404e-02 -7.382900437885e-01  3.524770310399e-01
 c       6                    6  1.297266250795e+00 -1.393754224648e+00  3.859177263210e-01
 c       7                    6 -1.315030940560e+00 -1.147056133882e+00 -5.582426848149e-01
 c       8                    6 -2.702198096529e+00 -5.893591470754e-01 -5.171603932342e-01
 c       9                    6 -2.416599321002e+00  7.517298073932e-01 -6.003032038428e-01
 c      10                    6 -9.386318776534e-01  5.913670061070e-01 -7.661469164671e-01
 h      11                    1  3.394317607015e+00 -9.589470903021e-01  6.628809327738e-01
 h      12                    1  3.088484720030e+00  1.481675421076e+00  1.098463340365e+00
 h      13                    1  8.634948658199e-01  2.570059063783e+00  8.208160543288e-01
 h      14                    1  1.487665853130e+00 -2.444375818986e+00  1.319596587662e-01
 h      15                    1 -1.095371616017e+00 -2.013713018022e+00 -1.207987305747e+00
 h      16                    1 -3.650020460514e+00 -1.132367666145e+00 -4.555762583772e-01
 h      17                    1 -2.982432902279e+00  1.657660265309e+00 -3.582634040538e-01
 h      18                    1 -3.862041014523e-01  8.527907461711e-01 -1.679080423224e+00
[GTO]
1
 s           8
      6.665000000000e+03      6.915839628130e-04
      1.000000000000e+03      5.325796152934e-03
      2.280000000000e+02      2.706072104203e-02
      6.471000000000e+01      1.016568461408e-01
      2.106000000000e+01      2.745748236174e-01
      7.495000000000e+00      4.482943189238e-01
      2.797000000000e+00      2.849026107152e-01
      5.215000000000e-01      1.519485920608e-02
 s           8
      6.665000000000e+03     -2.932696526865e-04
      1.000000000000e+03     -2.318035473975e-03
      2.280000000000e+02     -1.149978603857e-02
      6.471000000000e+01     -4.682672700979e-02
      2.106000000000e+01     -1.284661687505e-01
      7.495000000000e+00     -3.012662724629e-01
      2.797000000000e+00     -2.556307023301e-01
      5.215000000000e-01      1.093793361012e+00
 s           1
      1.596000000000e-01      1.000000000000e+00
 s           1
      4.690000000000e-02      1.000000000000e+00
 p           3
      9.439000000000e+00      5.697925159004e-02
      2.002000000000e+00      3.132072115007e-01
      5.456000000000e-01      7.603767417375e-01
 p           1
      1.517000000000e-01      1.000000000000e+00
 p           1
      4.041000000000e-02      1.000000000000e+00
 d           1
      5.500000000000e-01      1.000000000000e+00
 d           1
      1.510000000000e-01      1.000000000000e+00

2
 s           8
      6.665000000000e+03      6.915839628130e-04
      1.000000000000e+03      5.325796152934e-03
      2.280000000000e+02      2.706072104203e-02
      6.471000000000e+01      1.016568461408e-01
      2.106000000000e+01      2.745748236174e-01
      7.495000000000e+00      4.482943189238e-01
      2.797000000000e+00      2.849026107152e-01
      5.215000000000e-01      1.519485920608e-02
 s           8
      6.665000000000e+03     -2.932696526865e-04
      1.000000000000e+03     -2.318035473975e-03
      2.280000000000e+02     -1.149978603857e-02
      6.471000000000e+01     -4.682672700979e-02
      2.106000000000e+01     -1.284661687505e-01
      7.495000000000e+00     -3.012662724629e-01
      2.797000000000e+00     -2.556307023301e-01
      5.215000000000e-01      1.093793361012e+00
 s           1
      1.596000000000e-01      1.000000000000e+00
 s           1
      4.690000000000e-02      1.000000000000e+00
 p           3
      9.439000000000e+00      5.697925159004e-02
      2.002000000000e+00      3.132072115007e-01
      5.456000000000e-01      7.603767417375e-01
 p           1
      1.517000000000e-01      1.000000000000e+00
 p           1
      4.041000000000e-02      1.000000000000e+00
 d           1
      5.500000000000e-01      1.000000000000e+00
 d           1
      1.510000000000e-01      1.000000000000e+00

3
 s           8
      6.665000000000e+03      6.915839628130e-04
      1.000000000000e+03      5.325796152934e-03
      2.280000000000e+02      2.706072104203e-02
      6.471000000000e+01      1.016568461408e-01
      2.106000000000e+01      2.745748236174e-01
      7.495000000000e+00      4.482943189238e-01
      2.797000000000e+00      2.849026107152e-01
      5.215000000000e-01      1.519485920608e-02
 s           8
      6.665000000000e+03     -2.932696526865e-04
      1.000000000000e+03     -2.318035473975e-03
      2.280000000000e+02     -1.149978603857e-02
      6.471000000000e+01     -4.682672700979e-02
      2.106000000000e+01     -1.284661687505e-01
      7.495000000000e+00     -3.012662724629e-01
      2.797000000000e+00     -2.556307023301e-01
      5.215000000000e-01      1.093793361012e+00
 s           1
      1.596000000000e-01      1.000000000000e+00
 s           1
      4.690000000000e-02      1.000000000000e+00
 p           3
      9.439000000000e+00      5.697925159004e-02
      2.002000000000e+00      3.132072115007e-01
      5.456000000000e-01      7.603767417375e-01
 p           1
      1.517000000000e-01      1.000000000000e+00
 p           1
      4.041000000000e-02      1.000000000000e+00
 d           1
      5.500000000000e-01      1.000000000000e+00
 d           1
      1.510000000000e-01      1.000000000000e+00

4
 s           8
      9.046000000000e+03      6.996174134255e-04
      1.357000000000e+03      5.386054629929e-03
      3.093000000000e+02      2.739102118906e-02
      8.773000000000e+01      1.031505919820e-01
      2.856000000000e+01      2.785706633174e-01
      1.021000000000e+01      4.482948494541e-01
      3.838000000000e+00      2.780859283953e-01
      7.466000000000e-01      1.543156123327e-02
 s           8
      9.046000000000e+03     -3.049900959534e-04
      1.357000000000e+03     -2.408026378508e-03
      3.093000000000e+02     -1.194444872518e-02
      8.773000000000e+01     -4.892599290902e-02
      2.856000000000e+01     -1.344727247250e-01
      1.021000000000e+01     -3.151125777001e-01
      3.838000000000e+00     -2.428578325496e-01
      7.466000000000e-01      1.094382206854e+00
 s           1
      2.248000000000e-01      1.000000000000e+00
 s           1
      6.124000000000e-02      1.000000000000e+00
 p           3
      1.355000000000e+01      5.890567677213e-02
      2.917000000000e+00      3.204611067143e-01
      7.973000000000e-01      7.530420617921e-01
 p           1
      2.185000000000e-01      1.000000000000e+00
 p           1
      5.611000000000e-02      1.000000000000e+00
 d           1
      8.170000000000e-01      1.000000000000e+00
 d           1
      2.300000000000e-01      1.000000000000e+00

5
 s           8
      4.570000000000e+03      6.955544180306e-04
      6.859000000000e+02      5.349572988100e-03
      1.565000000000e+02      2.711662870523e-02
      4.447000000000e+01      1.013150961206e-01
      1.448000000000e+01      2.718808293065e-01
      5.131000000000e+00      4.481159306152e-01
      1.898000000000e+00      2.899372621010e-01
      3.329000000000e-01      1.431283099861e-02
 s           8
      4.570000000000e+03     -2.812802240142e-04
      6.859000000000e+02     -2.219887811105e-03
      1.565000000000e+02     -1.101647150743e-02
      4.447000000000e+01     -4.434918985248e-02
      1.448000000000e+01     -1.209120479502e-01
      5.131000000000e+00     -2.807378995535e-01
      1.898000000000e+00     -2.660668087326e-01
      3.329000000000e-01      1.091784130514e+00
 s           1
      1.043000000000e-01      1.000000000000e+00
 s           1
      3.105000000000e-02      1.000000000000e+00
 p           3
      6.001000000000e+00      5.416586334015e-02
      1.241000000000e+00      3.023798901809e-01
      3.364000000000e-01      7.712922165481e-01
 p           1
      9.538000000000e-02      1.000000000000e+00
 p           1
      2.378000000000e-02      1.000000000000e+00
 d           1
      3.430000000000e-01      1.000000000000e+00
 d           1
      9.040000000000e-02      1.000000000000e+00

6
 s           8
      6.665000000000e+03      6.915839628130e-04
      1.000000000000e+03      5.325796152934e-03
      2.280000000000e+02      2.706072104203e-02
      6.471000000000e+01      1.016568461408e-01
      2.106000000000e+01      2.745748236174e-01
      7.495000000000e+00      4.482943189238e-01
      2.797000000000e+00      2.849026107152e-01
      5.215000000000e-01      1.519485920608e-02
 s           8
      6.665000000000e+03     -2.932696526865e-04
      1.000000000000e+03     -2.318035473975e-03
      2.280000000000e+02     -1.149978603857e-02
      6.471000000000e+01     -4.682672700979e-02
      2.106000000000e+01     -1.284661687505e-01
      7.495000000000e+00     -3.012662724629e-01
      2.797000000000e+00     -2.556307023301e-01
      5.215000000000e-01      1.093793361012e+00
 s           1
      1.596000000000e-01      1.000000000000e+00
 s           1
      4.690000000000e-02      1.000000000000e+00
 p           3
      9.439000000000e+00      5.697925159004e-02
      2.002000000000e+00      3.132072115007e-01
      5.456000000000e-01      7.603767417375e-01
 p           1
      1.517000000000e-01      1.000000000000e+00
 p           1
      4.041000000000e-02      1.000000000000e+00
 d           1
      5.500000000000e-01      1.000000000000e+00
 d           1
      1.510000000000e-01      1.000000000000e+00

7
 s           8
      6.665000000000e+03      6.915839628130e-04
      1.000000000000e+03      5.325796152934e-03
      2.280000000000e+02      2.706072104203e-02
      6.471000000000e+01      1.016568461408e-01
      2.106000000000e+01      2.745748236174e-01
      7.495000000000e+00      4.482943189238e-01
      2.797000000000e+00      2.849026107152e-01
      5.215000000000e-01      1.519485920608e-02
 s           8
      6.665000000000e+03     -2.932696526865e-04
      1.000000000000e+03     -2.318035473975e-03
      2.280000000000e+02     -1.149978603857e-02
      6.471000000000e+01     -4.682672700979e-02
      2.106000000000e+01     -1.284661687505e-01
      7.495000000000e+00     -3.012662724629e-01
      2.797000000000e+00     -2.556307023301e-01
      5.215000000000e-01      1.093793361012e+00
 s           1
      1.596000000000e-01      1.000000000000e+00
 s           1
      4.690000000000e-02      1.000000000000e+00
 p           3
      9.439000000000e+00      5.697925159004e-02
      2.002000000000e+00      3.132072115007e-01
      5.456000000000e-01      7.603767417375e-01
 p           1
      1.517000000000e-01      1.000000000000e+00
 p           1
      4.041000000000e-02      1.000000000000e+00
 d           1
      5.500000000000e-01      1.000000000000e+00
 d           1
      1.510000000000e-01      1.000000000000e+00

8
 s           8
      6.665000000000e+03      6.915839628130e-04
      1.000000000000e+03      5.325796152934e-03
      2.280000000000e+02      2.706072104203e-02
      6.471000000000e+01      1.016568461408e-01
      2.106000000000e+01      2.745748236174e-01
      7.495000000000e+00      4.482943189238e-01
      2.797000000000e+00      2.849026107152e-01
      5.215000000000e-01      1.519485920608e-02
 s           8
      6.665000000000e+03     -2.932696526865e-04
      1.000000000000e+03     -2.318035473975e-03
      2.280000000000e+02     -1.149978603857e-02
      6.471000000000e+01     -4.682672700979e-02
      2.106000000000e+01     -1.284661687505e-01
      7.495000000000e+00     -3.012662724629e-01
      2.797000000000e+00     -2.556307023301e-01
      5.215000000000e-01      1.093793361012e+00
 s           1
      1.596000000000e-01      1.000000000000e+00
 s           1
      4.690000000000e-02      1.000000000000e+00
 p           3
      9.439000000000e+00      5.697925159004e-02
      2.002000000000e+00      3.132072115007e-01
      5.456000000000e-01      7.603767417375e-01
 p           1
      1.517000000000e-01      1.000000000000e+00
 p           1
      4.041000000000e-02      1.000000000000e+00
 d           1
      5.500000000000e-01      1.000000000000e+00
 d           1
      1.510000000000e-01      1.000000000000e+00

9
 s           8
      6.665000000000e+03      6.915839628130e-04
      1.000000000000e+03      5.325796152934e-03
      2.280000000000e+02      2.706072104203e-02
      6.471000000000e+01      1.016568461408e-01
      2.106000000000e+01      2.745748236174e-01
      7.495000000000e+00      4.482943189238e-01
      2.797000000000e+00      2.849026107152e-01
      5.215000000000e-01      1.519485920608e-02
 s           8
      6.665000000000e+03     -2.932696526865e-04
      1.000000000000e+03     -2.318035473975e-03
      2.280000000000e+02     -1.149978603857e-02
      6.471000000000e+01     -4.682672700979e-02
      2.106000000000e+01     -1.284661687505e-01
      7.495000000000e+00     -3.012662724629e-01
      2.797000000000e+00     -2.556307023301e-01
      5.215000000000e-01      1.093793361012e+00
 s           1
      1.596000000000e-01      1.000000000000e+00
 s           1
      4.690000000000e-02      1.000000000000e+00
 p           3
      9.439000000000e+00      5.697925159004e-02
      2.002000000000e+00      3.132072115007e-01
      5.456000000000e-01      7.603767417375e-01
 p           1
      1.517000000000e-01      1.000000000000e+00
 p           1
      4.041000000000e-02      1.000000000000e+00
 d           1
      5.500000000000e-01      1.000000000000e+00
 d           1
      1.510000000000e-01      1.000000000000e+00

10
 s           8
      6.665000000000e+03      6.915839628130e-04
      1.000000000000e+03      5.325796152934e-03
      2.280000000000e+02      2.706072104203e-02
      6.471000000000e+01      1.016568461408e-01
      2.106000000000e+01      2.745748236174e-01
      7.495000000000e+00      4.482943189238e-01
      2.797000000000e+00      2.849026107152e-01
      5.215000000000e-01      1.519485920608e-02
 s           8
      6.665000000000e+03     -2.932696526865e-04
      1.000000000000e+03     -2.318035473975e-03
      2.280000000000e+02     -1.149978603857e-02
      6.471000000000e+01     -4.682672700979e-02
      2.106000000000e+01     -1.284661687505e-01
      7.495000000000e+00     -3.012662724629e-01
      2.797000000000e+00     -2.556307023301e-01
      5.215000000000e-01      1.093793361012e+00
 s           1
      1.596000000000e-01      1.000000000000e+00
 s           1
      4.690000000000e-02      1.000000000000e+00
 p           3
      9.439000000000e+00      5.697925159004e-02
      2.002000000000e+00      3.132072115007e-01
      5.456000000000e-01      7.603767417375e-01
 p           1
      1.517000000000e-01      1.000000000000e+00
 p           1
      4.041000000000e-02      1.000000000000e+00
 d           1
      5.500000000000e-01      1.000000000000e+00
 d           1
      1.510000000000e-01      1.000000000000e+00

11
 s           3
      1.301000000000e+01      3.349872639000e-02
      1.962000000000e+00      2.348008011741e-01
      4.446000000000e-01      8.136829578829e-01
 s           1
      1.220000000000e-01      1.000000000000e+00
 s           1
      2.974000000000e-02      1.000000000000e+00
 p           1
      7.270000000000e-01      1.000000000000e+00
 p           1
      1.410000000000e-01      1.000000000000e+00

12
 s           3
      1.301000000000e+01      3.349872639000e-02
      1.962000000000e+00      2.348008011741e-01
      4.446000000000e-01      8.136829578829e-01
 s           1
      1.220000000000e-01      1.000000000000e+00
 s           1
      2.974000000000e-02      1.000000000000e+00
 p           1
      7.270000000000e-01      1.000000000000e+00
 p           1
      1.410000000000e-01      1.000000000000e+00

13
 s           3
      1.301000000000e+01      3.349872639000e-02
      1.962000000000e+00      2.348008011741e-01
      4.446000000000e-01      8.136829578829e-01
 s           1
      1.220000000000e-01      1.000000000000e+00
 s           1
      2.974000000000e-02      1.000000000000e+00
 p           1
      7.270000000000e-01      1.000000000000e+00
 p           1
      1.410000000000e-01      1.000000000000e+00

14
 s           3
      1.301000000000e+01      3.349872639000e-02
      1.962000000000e+00      2.348008011741e-01
      4.446000000000e-01      8.136829578829e-01
 s           1
      1.220000000000e-01      1.000000000000e+00
 s           1
      2.974000000000e-02      1.000000000000e+00
 p           1
      7.270000000000e-01      1.000000000000e+00
 p           1
      1.410000000000e-01      1.000000000000e+00

15
 s           3
      1.301000000000e+01      3.349872639000e-02
      1.962000000000e+00      2.348008011741e-01
      4.446000000000e-01      8.136829578829e-01
 s           1
      1.220000000000e-01      1.000000000000e+00
 s           1
      2.974000000000e-02      1.000000000000e+00
 p           1
      7.270000000000e-01      1.000000000000e+00
 p           1
      1.410000000000e-01      1.000000000000e+00

16
 s           3
      1.301000000000e+01      3.349872639000e-02
      1.962000000000e+00      2.348008011741e-01
      4.446000000000e-01      8.136829578829e-01
 s           1
      1.220000000000e-01      1.000000000000e+00
 s           1
      2.974000000000e-02      1.000000000000e+00
 p           1
      7.270000000000e-01      1.000000000000e+00
 p           1
      1.410000000000e-01      1.000000000000e+00

17
 s           3
      1.301000000000e+01      3.349872639000e-02
      1.962000000000e+00      2.348008011741e-01
      4.446000000000e-01      8.136829578829e-01
 s           1
      1.220000000000e-01      1.000000000000e+00
 s           1
      2.974000000000e-02      1.000000000000e+00
 p           1
      7.270000000000e-01      1.000000000000e+00
 p           1
      1.410000000000e-01      1.000000000000e+00

18
 s           3
      1.301000000000e+01      3.349872639000e-02
      1.962000000000e+00      2.348008011741e-01
      4.446000000000e-01      8.136829578829e-01
 s           1
      1.220000000000e-01      1.000000000000e+00
 s           1
      2.974000000000e-02      1.000000000000e+00
 p           1
      7.270000000000e-01      1.000000000000e+00
 p           1
      1.410000000000e-01      1.000000000000e+00


[5D]
[7F]
[9G]
[MO]
 Ene=  -15.585328
 Spin=  Alpha
 Occup=    2.000000
   1    -0.0000740770899512
   2    -0.0001349627205413
   3     0.0050435315613794
   4     0.0063051510559175
   5     0.0000097847983528
   6     0.0000008770857686
   7     0.0000033048175908
   8    -0.0014652580525110
   9     0.0075235912263734
  10     0.0011680133457617
  11    -0.0032734366480782
  12    -0.0031866807740292
  13    -0.0010559400736562
  14    -0.0000006916030947
  15     0.0000024193562728
  16     0.0000069928731324
  17    -0.0000266380302929
  18     0.0000057050680986
  19    -0.0000507412702565
  20    -0.0005519603700153
  21    -0.0002580389469112
  22    -0.0003238149375528
  23    -0.0025573774900707
  24     0.0000116739582815
  25    -0.0000062412113570
  26     0.0077698209213047
  27    -0.0124079945626704
  28     0.0000996475745303
  29    -0.0000393520452848
  30    -0.0000113402058171
  31    -0.0047315587405821
  32     0.0105020375593655
  33     0.0003666104480666
  34     0.0047888470283441
  35    -0.0022936429129335
  36     0.0005767086352782
  37    -0.0000043530793472
  38    -0.0000252685175448
  39    -0.0000061043393681
  40    -0.0000922765370609
  41    -0.0000065774984449
  42     0.0004864728138165
  43    -0.0001281233609418
  44    -0.0010471962624020
  45     0.0025248584943842
  46    -0.0032595846541673
  47     0.0001974971976722
  48     0.0003081488004004
  49    -0.0020969738123179
  50     0.0259298014207966
  51    -0.0002858702195224
  52    -0.0001735241458501
  53    -0.0000870729916035
  54    -0.0149301846727575
  55    -0.0037166018182890
  56    -0.0025575968605452
  57     0.0023111803064027
  58    -0.0048419099870742
  59    -0.0002067491298276
  60    -0.0000493934746911
  61    -0.0000511046972378
  62    -0.0000161602825469
  63    -0.0000996225313168
  64    -0.0001682113693656
  65    -0.0007589012109330
  66     0.0003626031825900
  67     0.0012552370435670
  68    -0.0022296623449192
  69     0.0058198516798289
  70     1.0031895188939068
  71     0.0055615724689646
  72    -0.0280136836602509
  73    -0.0172199558797632
  74     0.0006742472422105
  75     0.0000960523368400
  76    -0.0010559889279738
  77    -0.0019350193171781
  78    -0.0010830048309301
  79     0.0042959388915221
  80    -0.0045174495675445
  81    -0.0011577426249463
  82     0.0002822041776986
  83    -0.0001056473742821
  84     0.0000468601355465
  85     0.0000909422096618
  86    -0.0000122465549617
  87     0.0000925577941965
  88    -0.0002435660296065
  89    -0.0016622155705480
  90    -0.0008115646975307
  91    -0.0010219131744410
  92    -0.0013065247749449
  93     0.0003540545272166
  94     0.0006252127858194
  95     0.0033733684084903
  96    -0.0021516704927847
  97    -0.0000303528046849
  98     0.0003825634496498
  99    -0.0000446919679960
 100     0.0008705230910453
 101    -0.0018629935311363
 102    -0.0011682711002894
 103    -0.0008769729417968
 104    -0.0004481840459515
 105    -0.0003994424181409
 106    -0.0002021835753060
 107    -0.0000106186519961
 108    -0.0000221165556818
 109     0.0001509993741012
 110     0.0000486830402929
 111     0.0006672563316786
 112     0.0001996944643663
 113    -0.0000946145614421
 114     0.0012674997382588
 115    -0.0003075045186216
 116     0.0000202189154949
 117     0.0000063408762843
 118     0.0027077359155061
 119    -0.0090070822219692
 120     0.0000385065417482
 121    -0.0000404585809537
 122    -0.0000127107454561
 123     0.0035379242154074
 124     0.0001686408039576
 125     0.0004989380957078
 126    -0.0023346808247021
 127    -0.0010904607868313
 128    -0.0002663193182720
 129     0.0000723612009323
 130     0.0000100924235439
 131    -0.0000016497927355
 132     0.0000415931892370
 133     0.0000977570018718
 134    -0.0001399693168224
 135    -0.0000059533516549
 136    -0.0000772183153190
 137     0.0011004648778092
 138     0.0004744552813099
 139     0.0001078347140399
 140     0.0001564148362502
 141    -0.0009419882492898
 142     0.0000239033805444
 143    -0.0000399404643165
 144    -0.0000497913210500
 145    -0.0000110102056827
 146    -0.0029852339277312
 147    -0.0023494499401744
 148    -0.0018284205976377
 149     0.0008906333653167
 150     0.0000499528924734
 151    -0.0004909710410020
 152     0.0000263896844035
 153    -0.0000236960060227
 154    -0.0000499825576705
 155     0.0000863313655412
 156    -0.0000866148096319
 157     0.0001438582305970
 158    -0.0005372111748961
 159    -0.0006491329339236
 160     0.0006713799332747
 161    -0.0011971439364295
 162     0.0000825131629193
 163     0.0001344909430319
 164    -0.0030987122249547
 165    -0.0011701834815484
 166     0.0000359034836538
 167    -0.0000237087825315
 168     0.0000032782695018
 169    -0.0009476087093491
 170     0.0005980746362858
 171     0.0003440549324562
 172    -0.0003682853313959
 173    -0.0010318456696783
 174    -0.0000756248131387
 175     0.0000606557337992
 176    -0.0000333964106299
 177    -0.0000254914549238
 178    -0.0000013293664163
 179     0.0000156873557796
 180    -0.0000038142572419
 181     0.0001827748778036
 182     0.0002693333181306
 183    -0.0001699623450496
 184     0.0004410874786675
 185     0.0000522307987335
 186     0.0000687988026219
 187     0.0030405278200283
 188    -0.0025416579560457
 189    -0.0000145843071373
 190     0.0000072343227828
 191    -0.0000354774504268
 192     0.0006819086890357
 193    -0.0006086303233436
 194    -0.0008809086211705
 195    -0.0013593500013729
 196    -0.0001251931630536
 197    -0.0000094063922822
 198     0.0000812813834911
 199    -0.0000898930435039
 200     0.0000093794237088
 201    -0.0001259911937206
 202     0.0000746972315583
 203    -0.0004059107298695
 204    -0.0001675305079095
 205     0.0002555024908176
 206    -0.0003699536391207
 207     0.0001934126561699
 208    -0.0001920945747613
 209    -0.0002834157677871
 210     0.0099210815398516
 211     0.0048417248204652
 212     0.0002290702511673
 213     0.0001356367578374
 214     0.0003400403139551
 215     0.0053154562047225
 216    -0.0023248706305043
 217     0.0090699324318498
 218    -0.0018685293886816
 219     0.0005594269311599
 220     0.0013564028958769
 221     0.0000102530587730
 222     0.0000072042536174
 223     0.0000159300596520
 224     0.0002060455894887
 225     0.0000686089128643
 226     0.0032385896771415
 227     0.0029765355665333
 228    -0.0013635659403530
 229    -0.0016557856020649
 230    -0.0002147813578940
 231     0.0000210620273586
 232     0.0001223983967055
 233     0.0006167082586850
 234    -0.0000129377652617
 235     0.0000015521186608
 236     0.0000012260952991
 237     0.0000372924030606
 238     0.0004338669672075
 239     0.0001323015984411
 240     0.0000427428180464
 241    -0.0003420946647101
 242    -0.0005067161489355
 243     0.0000530891712670
 244     0.0000180946182415
 245     0.0000203056571417
 246     0.0004313884422735
 247     0.0005635026052401
 248     0.0001857734846959
 249    -0.0002450693070150
 250    -0.0002628168452602
 251     0.0018957964631957
 252     0.0000450299122551
 253     0.0001204439404339
 254     0.0000271788760586
 255    -0.0014518668394204
 256    -0.0004093167642582
 257    -0.0003056997621684
 258     0.0000680278225144
 259     0.0010764367448348
 260    -0.0004232503202578
 261    -0.0000133155126345
 262     0.0000170476124248
 263     0.0000067800269803
 264    -0.0002838039104937
 265     0.0000171315265697
 266     0.0001056913937818
 267     0.0000042309256784
 268    -0.0017546103840449
 269    -0.0007338777939632
 270    -0.0000131542184682
 271     0.0000100776009376
 272     0.0000162049675861
 273    -0.0003403350442559
 274    -0.0006049466023511
 275    -0.0002130230748830
 276     0.0000219745253644
 277     0.0000679828081820
 278    -0.0005446377803755
 279     0.0000188843028905
 280     0.0000114266958324
 281    -0.0000080367767354
 282     0.0000779868106020
 283     0.0001101461957933
 284     0.0001227924719942
 285    -0.0000328817805867
 286     0.0006861646261487
 287    -0.0004745808069111
 288     0.0000184090944688
 289    -0.0000245298892699
 290    -0.0000050560170169
 291     0.0001559658274637
 292    -0.0003734882261696
 293    -0.0000213540898962
 294    -0.0001666441977894
 295     0.0021755853075348
 296     0.0006911895573703
 297     0.0000281133223777
 298     0.0000040391021112
 299    -0.0001959115088107
 300     0.0010369886400000
 301    -0.0003722667956736
 302     0.0007042724006087
 Ene=  -11.319786
 Spin=  Alpha
 Occup=    2.000000
   1     0.0000458331121555
   2     0.0000829704472046
   3    -0.0052695497693389
   4     0.0007865921489074
   5     0.0000088935630602
   6    -0.0000196508359869
   7     0.0000018611419701
   8    -0.0001907069898186
   9    -0.0050736026674239
  10    -0.0006098902696785
  11    -0.0004715043005930
  12    -0.0004968165763633
  13    -0.0002056558059745
  14     0.0000275544666597
  15    -0.0000189986800923
  16    -0.0000094868210348
  17    -0.0000055082082667
  18     0.0000377089416197
  19    -0.0000788191805460
  20     0.0002435017336557
  21    -0.0002983307270043
  22     0.0009704236412121
  23     0.0008229992868714
  24    -0.0000284674602080
  25    -0.0000387129682541
  26    -0.0087429824673619
  27    -0.0032003939405089
  28     0.0001296469914403
  29    -0.0000330285931306
  30     0.0000373779443602
  31     0.0084457044864086
  32    -0.0070956117896401
  33     0.0006351610438474
  34     0.0011932820045624
  35    -0.0003156628313492
  36     0.0001599771583377
  37     0.0000218293586527
  38    -0.0000236970673181
  39     0.0000025633258456
  40    -0.0000559375157170
  41     0.0000045842375651
  42    -0.0000645109098342
  43    -0.0003075912276887
  44     0.0006647428369444
  45    -0.0035274802734175
  46     0.0014898223708280
  47     0.0001809848072493
  48    -0.0000923251302821
  49     0.0127884617344607
  50     0.0002914890553440
  51    -0.0002716696365442
  52    -0.0000992149201688
  53    -0.0001569506908754
  54     0.0090914071698717
  55    -0.0047527286128295
  56     0.0007527101013757
  57     0.0018667986011677
  58    -0.0014597833036838
  59     0.0003998376625024
  60    -0.0000719511100137
  61     0.0000651044727332
  62     0.0000804833208923
  63    -0.0001058244873951
  64    -0.0000578888918014
  65    -0.0004902974493066
  66     0.0000331631263239
  67    -0.0006484136695780
  68     0.0004485830440432
  69    -0.0044967847676836
  70    -0.0001285629221350
  71    -0.0005964264785421
  72     0.0026125146052338
  73     0.0007264780220907
  74     0.0004409626694561
  75    -0.0000318489571962
  76     0.0000711397898219
  77     0.0014769267703085
  78     0.0007073110445533
  79    -0.0000866498446596
  80     0.0036414007805807
  81     0.0028404713781833
  82    -0.0008772966913446
  83     0.0000166355112512
  84     0.0001139999379737
  85     0.0000575018569721
  86     0.0000790540536166
  87     0.0000762692612064
  88     0.0011204761242187
  89     0.0000832821273727
  90     0.0001240825787233
  91    -0.0007849712537151
  92    -0.0005220109772760
  93     0.0000665997123350
  94     0.0001423615381989
  95    -0.0057812982280213
  96     0.0002683858476401
  97    -0.0001789545142283