[Molden Format]
[Atoms] Angs
 c       1                    6  2.351357012648e+00 -5.593849408672e-01  5.996363252171e-01
 c       2                    6  2.226625903844e+00  8.699129602521e-01  7.998999305816e-01
 c       3                    6  1.022043757870e+00  1.504615735932e+00  7.307589951149e-01
 n       4                    7 -2.110168959087e-01  8.304906499982e-01  5.613662040417e-01
 b       5                    5 -1.421367032262e-01 -6.777025577724e-01  6.670504245508e-02
 c       6                    6  1.276168837615e+00 -1.310934295932e+00  2.212593992189e-01
 c       7                    6 -1.362032292973e+00 -1.406298615077e+00 -4.740611414995e-01
 c       8                    6 -2.582549469486e+00 -6.478353600864e-01 -6.472217305839e-01
 c       9                    6 -2.319532417763e+00  6.955241637997e-01 -6.084823125245e-01
 c      10                    6 -8.413954336654e-01  8.859855186501e-01 -6.681732941035e-01
 h      11                    1  3.333088752156e+00 -1.018157017324e+00  7.572613541876e-01
 h      12                    1  3.109319258639e+00  1.476264373772e+00  1.013125604686e+00
 h      13                    1  9.264157488201e-01  2.584587434852e+00  8.795774914512e-01
 h      14                    1  1.414740178040e+00 -2.392805232585e+00  9.939927557130e-02
 h      15                    1 -1.302569583779e+00 -2.456558416779e+00 -7.874209851674e-01
 h      16                    1 -3.575896493662e+00 -1.101473097812e+00 -6.465673926573e-01
 h      17                    1 -3.004826188996e+00  1.500564533844e+00 -3.241468054876e-01
 h      18                    1 -3.178039701730e-01  1.223204163135e+00 -1.572915960502e+00
[GTO]
1
 s           8
      6.665000000000e+03      6.915839628130e-04
      1.000000000000e+03      5.325796152934e-03
      2.280000000000e+02      2.706072104203e-02
      6.471000000000e+01      1.016568461408e-01
      2.106000000000e+01      2.745748236174e-01
      7.495000000000e+00      4.482943189238e-01
      2.797000000000e+00      2.849026107152e-01
      5.215000000000e-01      1.519485920608e-02
 s           8
      6.665000000000e+03     -2.932696526865e-04
      1.000000000000e+03     -2.318035473975e-03
      2.280000000000e+02     -1.149978603857e-02
      6.471000000000e+01     -4.682672700979e-02
      2.106000000000e+01     -1.284661687505e-01
      7.495000000000e+00     -3.012662724629e-01
      2.797000000000e+00     -2.556307023301e-01
      5.215000000000e-01      1.093793361012e+00
 s           1
      1.596000000000e-01      1.000000000000e+00
 s           1
      4.690000000000e-02      1.000000000000e+00
 p           3
      9.439000000000e+00      5.697925159004e-02
      2.002000000000e+00      3.132072115007e-01
      5.456000000000e-01      7.603767417375e-01
 p           1
      1.517000000000e-01      1.000000000000e+00
 p           1
      4.041000000000e-02      1.000000000000e+00
 d           1
      5.500000000000e-01      1.000000000000e+00
 d           1
      1.510000000000e-01      1.000000000000e+00

2
 s           8
      6.665000000000e+03      6.915839628130e-04
      1.000000000000e+03      5.325796152934e-03
      2.280000000000e+02      2.706072104203e-02
      6.471000000000e+01      1.016568461408e-01
      2.106000000000e+01      2.745748236174e-01
      7.495000000000e+00      4.482943189238e-01
      2.797000000000e+00      2.849026107152e-01
      5.215000000000e-01      1.519485920608e-02
 s           8
      6.665000000000e+03     -2.932696526865e-04
      1.000000000000e+03     -2.318035473975e-03
      2.280000000000e+02     -1.149978603857e-02
      6.471000000000e+01     -4.682672700979e-02
      2.106000000000e+01     -1.284661687505e-01
      7.495000000000e+00     -3.012662724629e-01
      2.797000000000e+00     -2.556307023301e-01
      5.215000000000e-01      1.093793361012e+00
 s           1
      1.596000000000e-01      1.000000000000e+00
 s           1
      4.690000000000e-02      1.000000000000e+00
 p           3
      9.439000000000e+00      5.697925159004e-02
      2.002000000000e+00      3.132072115007e-01
      5.456000000000e-01      7.603767417375e-01
 p           1
      1.517000000000e-01      1.000000000000e+00
 p           1
      4.041000000000e-02      1.000000000000e+00
 d           1
      5.500000000000e-01      1.000000000000e+00
 d           1
      1.510000000000e-01      1.000000000000e+00

3
 s           8
      6.665000000000e+03      6.915839628130e-04
      1.000000000000e+03      5.325796152934e-03
      2.280000000000e+02      2.706072104203e-02
      6.471000000000e+01      1.016568461408e-01
      2.106000000000e+01      2.745748236174e-01
      7.495000000000e+00      4.482943189238e-01
      2.797000000000e+00      2.849026107152e-01
      5.215000000000e-01      1.519485920608e-02
 s           8
      6.665000000000e+03     -2.932696526865e-04
      1.000000000000e+03     -2.318035473975e-03
      2.280000000000e+02     -1.149978603857e-02
      6.471000000000e+01     -4.682672700979e-02
      2.106000000000e+01     -1.284661687505e-01
      7.495000000000e+00     -3.012662724629e-01
      2.797000000000e+00     -2.556307023301e-01
      5.215000000000e-01      1.093793361012e+00
 s           1
      1.596000000000e-01      1.000000000000e+00
 s           1
      4.690000000000e-02      1.000000000000e+00
 p           3
      9.439000000000e+00      5.697925159004e-02
      2.002000000000e+00      3.132072115007e-01
      5.456000000000e-01      7.603767417375e-01
 p           1
      1.517000000000e-01      1.000000000000e+00
 p           1
      4.041000000000e-02      1.000000000000e+00
 d           1
      5.500000000000e-01      1.000000000000e+00
 d           1
      1.510000000000e-01      1.000000000000e+00

4
 s           8
      9.046000000000e+03      6.996174134255e-04
      1.357000000000e+03      5.386054629929e-03
      3.093000000000e+02      2.739102118906e-02
      8.773000000000e+01      1.031505919820e-01
      2.856000000000e+01      2.785706633174e-01
      1.021000000000e+01      4.482948494541e-01
      3.838000000000e+00      2.780859283953e-01
      7.466000000000e-01      1.543156123327e-02
 s           8
      9.046000000000e+03     -3.049900959534e-04
      1.357000000000e+03     -2.408026378508e-03
      3.093000000000e+02     -1.194444872518e-02
      8.773000000000e+01     -4.892599290902e-02
      2.856000000000e+01     -1.344727247250e-01
      1.021000000000e+01     -3.151125777001e-01
      3.838000000000e+00     -2.428578325496e-01
      7.466000000000e-01      1.094382206854e+00
 s           1
      2.248000000000e-01      1.000000000000e+00
 s           1
      6.124000000000e-02      1.000000000000e+00
 p           3
      1.355000000000e+01      5.890567677213e-02
      2.917000000000e+00      3.204611067143e-01
      7.973000000000e-01      7.530420617921e-01
 p           1
      2.185000000000e-01      1.000000000000e+00
 p           1
      5.611000000000e-02      1.000000000000e+00
 d           1
      8.170000000000e-01      1.000000000000e+00
 d           1
      2.300000000000e-01      1.000000000000e+00

5
 s           8
      4.570000000000e+03      6.955544180306e-04
      6.859000000000e+02      5.349572988100e-03
      1.565000000000e+02      2.711662870523e-02
      4.447000000000e+01      1.013150961206e-01
      1.448000000000e+01      2.718808293065e-01
      5.131000000000e+00      4.481159306152e-01
      1.898000000000e+00      2.899372621010e-01
      3.329000000000e-01      1.431283099861e-02
 s           8
      4.570000000000e+03     -2.812802240142e-04
      6.859000000000e+02     -2.219887811105e-03
      1.565000000000e+02     -1.101647150743e-02
      4.447000000000e+01     -4.434918985248e-02
      1.448000000000e+01     -1.209120479502e-01
      5.131000000000e+00     -2.807378995535e-01
      1.898000000000e+00     -2.660668087326e-01
      3.329000000000e-01      1.091784130514e+00
 s           1
      1.043000000000e-01      1.000000000000e+00
 s           1
      3.105000000000e-02      1.000000000000e+00
 p           3
      6.001000000000e+00      5.416586334015e-02
      1.241000000000e+00      3.023798901809e-01
      3.364000000000e-01      7.712922165481e-01
 p           1
      9.538000000000e-02      1.000000000000e+00
 p           1
      2.378000000000e-02      1.000000000000e+00
 d           1
      3.430000000000e-01      1.000000000000e+00
 d           1
      9.040000000000e-02      1.000000000000e+00

6
 s           8
      6.665000000000e+03      6.915839628130e-04
      1.000000000000e+03      5.325796152934e-03
      2.280000000000e+02      2.706072104203e-02
      6.471000000000e+01      1.016568461408e-01
      2.106000000000e+01      2.745748236174e-01
      7.495000000000e+00      4.482943189238e-01
      2.797000000000e+00      2.849026107152e-01
      5.215000000000e-01      1.519485920608e-02
 s           8
      6.665000000000e+03     -2.932696526865e-04
      1.000000000000e+03     -2.318035473975e-03
      2.280000000000e+02     -1.149978603857e-02
      6.471000000000e+01     -4.682672700979e-02
      2.106000000000e+01     -1.284661687505e-01
      7.495000000000e+00     -3.012662724629e-01
      2.797000000000e+00     -2.556307023301e-01
      5.215000000000e-01      1.093793361012e+00
 s           1
      1.596000000000e-01      1.000000000000e+00
 s           1
      4.690000000000e-02      1.000000000000e+00
 p           3
      9.439000000000e+00      5.697925159004e-02
      2.002000000000e+00      3.132072115007e-01
      5.456000000000e-01      7.603767417375e-01
 p           1
      1.517000000000e-01      1.000000000000e+00
 p           1
      4.041000000000e-02      1.000000000000e+00
 d           1
      5.500000000000e-01      1.000000000000e+00
 d           1
      1.510000000000e-01      1.000000000000e+00

7
 s           8
      6.665000000000e+03      6.915839628130e-04
      1.000000000000e+03      5.325796152934e-03
      2.280000000000e+02      2.706072104203e-02
      6.471000000000e+01      1.016568461408e-01
      2.106000000000e+01      2.745748236174e-01
      7.495000000000e+00      4.482943189238e-01
      2.797000000000e+00      2.849026107152e-01
      5.215000000000e-01      1.519485920608e-02
 s           8
      6.665000000000e+03     -2.932696526865e-04
      1.000000000000e+03     -2.318035473975e-03
      2.280000000000e+02     -1.149978603857e-02
      6.471000000000e+01     -4.682672700979e-02
      2.106000000000e+01     -1.284661687505e-01
      7.495000000000e+00     -3.012662724629e-01
      2.797000000000e+00     -2.556307023301e-01
      5.215000000000e-01      1.093793361012e+00
 s           1
      1.596000000000e-01      1.000000000000e+00
 s           1
      4.690000000000e-02      1.000000000000e+00
 p           3
      9.439000000000e+00      5.697925159004e-02
      2.002000000000e+00      3.132072115007e-01
      5.456000000000e-01      7.603767417375e-01
 p           1
      1.517000000000e-01      1.000000000000e+00
 p           1
      4.041000000000e-02      1.000000000000e+00
 d           1
      5.500000000000e-01      1.000000000000e+00
 d           1
      1.510000000000e-01      1.000000000000e+00

8
 s           8
      6.665000000000e+03      6.915839628130e-04
      1.000000000000e+03      5.325796152934e-03
      2.280000000000e+02      2.706072104203e-02
      6.471000000000e+01      1.016568461408e-01
      2.106000000000e+01      2.745748236174e-01
      7.495000000000e+00      4.482943189238e-01
      2.797000000000e+00      2.849026107152e-01
      5.215000000000e-01      1.519485920608e-02
 s           8
      6.665000000000e+03     -2.932696526865e-04
      1.000000000000e+03     -2.318035473975e-03
      2.280000000000e+02     -1.149978603857e-02
      6.471000000000e+01     -4.682672700979e-02
      2.106000000000e+01     -1.284661687505e-01
      7.495000000000e+00     -3.012662724629e-01
      2.797000000000e+00     -2.556307023301e-01
      5.215000000000e-01      1.093793361012e+00
 s           1
      1.596000000000e-01      1.000000000000e+00
 s           1
      4.690000000000e-02      1.000000000000e+00
 p           3
      9.439000000000e+00      5.697925159004e-02
      2.002000000000e+00      3.132072115007e-01
      5.456000000000e-01      7.603767417375e-01
 p           1
      1.517000000000e-01      1.000000000000e+00
 p           1
      4.041000000000e-02      1.000000000000e+00
 d           1
      5.500000000000e-01      1.000000000000e+00
 d           1
      1.510000000000e-01      1.000000000000e+00

9
 s           8
      6.665000000000e+03      6.915839628130e-04
      1.000000000000e+03      5.325796152934e-03
      2.280000000000e+02      2.706072104203e-02
      6.471000000000e+01      1.016568461408e-01
      2.106000000000e+01      2.745748236174e-01
      7.495000000000e+00      4.482943189238e-01
      2.797000000000e+00      2.849026107152e-01
      5.215000000000e-01      1.519485920608e-02
 s           8
      6.665000000000e+03     -2.932696526865e-04
      1.000000000000e+03     -2.318035473975e-03
      2.280000000000e+02     -1.149978603857e-02
      6.471000000000e+01     -4.682672700979e-02
      2.106000000000e+01     -1.284661687505e-01
      7.495000000000e+00     -3.012662724629e-01
      2.797000000000e+00     -2.556307023301e-01
      5.215000000000e-01      1.093793361012e+00
 s           1
      1.596000000000e-01      1.000000000000e+00
 s           1
      4.690000000000e-02      1.000000000000e+00
 p           3
      9.439000000000e+00      5.697925159004e-02
      2.002000000000e+00      3.132072115007e-01
      5.456000000000e-01      7.603767417375e-01
 p           1
      1.517000000000e-01      1.000000000000e+00
 p           1
      4.041000000000e-02      1.000000000000e+00
 d           1
      5.500000000000e-01      1.000000000000e+00
 d           1
      1.510000000000e-01      1.000000000000e+00

10
 s           8
      6.665000000000e+03      6.915839628130e-04
      1.000000000000e+03      5.325796152934e-03
      2.280000000000e+02      2.706072104203e-02
      6.471000000000e+01      1.016568461408e-01
      2.106000000000e+01      2.745748236174e-01
      7.495000000000e+00      4.482943189238e-01
      2.797000000000e+00      2.849026107152e-01
      5.215000000000e-01      1.519485920608e-02
 s           8
      6.665000000000e+03     -2.932696526865e-04
      1.000000000000e+03     -2.318035473975e-03
      2.280000000000e+02     -1.149978603857e-02
      6.471000000000e+01     -4.682672700979e-02
      2.106000000000e+01     -1.284661687505e-01
      7.495000000000e+00     -3.012662724629e-01
      2.797000000000e+00     -2.556307023301e-01
      5.215000000000e-01      1.093793361012e+00
 s           1
      1.596000000000e-01      1.000000000000e+00
 s           1
      4.690000000000e-02      1.000000000000e+00
 p           3
      9.439000000000e+00      5.697925159004e-02
      2.002000000000e+00      3.132072115007e-01
      5.456000000000e-01      7.603767417375e-01
 p           1
      1.517000000000e-01      1.000000000000e+00
 p           1
      4.041000000000e-02      1.000000000000e+00
 d           1
      5.500000000000e-01      1.000000000000e+00
 d           1
      1.510000000000e-01      1.000000000000e+00

11
 s           3
      1.301000000000e+01      3.349872639000e-02
      1.962000000000e+00      2.348008011741e-01
      4.446000000000e-01      8.136829578829e-01
 s           1
      1.220000000000e-01      1.000000000000e+00
 s           1
      2.974000000000e-02      1.000000000000e+00
 p           1
      7.270000000000e-01      1.000000000000e+00
 p           1
      1.410000000000e-01      1.000000000000e+00

12
 s           3
      1.301000000000e+01      3.349872639000e-02
      1.962000000000e+00      2.348008011741e-01
      4.446000000000e-01      8.136829578829e-01
 s           1
      1.220000000000e-01      1.000000000000e+00
 s           1
      2.974000000000e-02      1.000000000000e+00
 p           1
      7.270000000000e-01      1.000000000000e+00
 p           1
      1.410000000000e-01      1.000000000000e+00

13
 s           3
      1.301000000000e+01      3.349872639000e-02
      1.962000000000e+00      2.348008011741e-01
      4.446000000000e-01      8.136829578829e-01
 s           1
      1.220000000000e-01      1.000000000000e+00
 s           1
      2.974000000000e-02      1.000000000000e+00
 p           1
      7.270000000000e-01      1.000000000000e+00
 p           1
      1.410000000000e-01      1.000000000000e+00

14
 s           3
      1.301000000000e+01      3.349872639000e-02
      1.962000000000e+00      2.348008011741e-01
      4.446000000000e-01      8.136829578829e-01
 s           1
      1.220000000000e-01      1.000000000000e+00
 s           1
      2.974000000000e-02      1.000000000000e+00
 p           1
      7.270000000000e-01      1.000000000000e+00
 p           1
      1.410000000000e-01      1.000000000000e+00

15
 s           3
      1.301000000000e+01      3.349872639000e-02
      1.962000000000e+00      2.348008011741e-01
      4.446000000000e-01      8.136829578829e-01
 s           1
      1.220000000000e-01      1.000000000000e+00
 s           1
      2.974000000000e-02      1.000000000000e+00
 p           1
      7.270000000000e-01      1.000000000000e+00
 p           1
      1.410000000000e-01      1.000000000000e+00

16
 s           3
      1.301000000000e+01      3.349872639000e-02
      1.962000000000e+00      2.348008011741e-01
      4.446000000000e-01      8.136829578829e-01
 s           1
      1.220000000000e-01      1.000000000000e+00
 s           1
      2.974000000000e-02      1.000000000000e+00
 p           1
      7.270000000000e-01      1.000000000000e+00
 p           1
      1.410000000000e-01      1.000000000000e+00

17
 s           3
      1.301000000000e+01      3.349872639000e-02
      1.962000000000e+00      2.348008011741e-01
      4.446000000000e-01      8.136829578829e-01
 s           1
      1.220000000000e-01      1.000000000000e+00
 s           1
      2.974000000000e-02      1.000000000000e+00
 p           1
      7.270000000000e-01      1.000000000000e+00
 p           1
      1.410000000000e-01      1.000000000000e+00

18
 s           3
      1.301000000000e+01      3.349872639000e-02
      1.962000000000e+00      2.348008011741e-01
      4.446000000000e-01      8.136829578829e-01
 s           1
      1.220000000000e-01      1.000000000000e+00
 s           1
      2.974000000000e-02      1.000000000000e+00
 p           1
      7.270000000000e-01      1.000000000000e+00
 p           1
      1.410000000000e-01      1.000000000000e+00


[5D]
[7F]
[9G]
[MO]
 Ene=  -15.603561
 Spin=  Alpha
 Occup=    2.000000
   1     0.0000939415245638
   2     0.0001652188849996
   3    -0.0070905630964783
   4    -0.0009279142109625
   5     0.0000044727819567
   6    -0.0000005903633646
   7    -0.0000189968500439
   8     0.0010630876813864
   9    -0.0087617726322668
  10    -0.0011934540586866
  11     0.0025309638845196
  12     0.0027939206528120
  13     0.0010013617262699
  14     0.0000076347732210
  15    -0.0000069824845699
  16     0.0000028179694020
  17     0.0000059953237825
  18     0.0000354644975265
  19     0.0001542795263749
  20     0.0004981899049883
  21     0.0002974372568396
  22     0.0013930562448605
  23     0.0021130748597996
  24    -0.0000448346873194
  25    -0.0000500477128019
  26    -0.0092815186439045
  27     0.0081252705367242
  28    -0.0000679302839075
  29     0.0000436959471029
  30     0.0000079821100661
  31     0.0066903245440297
  32    -0.0125005800924978
  33    -0.0011122465578484
  34    -0.0037547474069670
  35     0.0032783657764920
  36    -0.0001184908093214
  37    -0.0000170552324817
  38     0.0000344987812588
  39     0.0000093193098249
  40     0.0001265136095860
  41     0.0000581435098038
  42    -0.0005285213383338
  43     0.0001986789556159
  44     0.0011914598504050
  45    -0.0033970768096803
  46     0.0030991556454875
  47    -0.0001853438928836
  48    -0.0003041882186295
  49     0.0055966341211932
  50    -0.0209268137444450
  51     0.0002943813868360
  52     0.0001260827183399
  53     0.0000707043639318
  54     0.0167519345058758
  55     0.0019048168488082
  56     0.0022238943082953
  57    -0.0026726306391194
  58     0.0031248828653406
  59     0.0004463709228302
  60     0.0000423075331795
  61    -0.0000042088971605
  62    -0.0000418339750978
  63     0.0001564006589156
  64     0.0001314726142929
  65     0.0005997624061711
  66    -0.0007336024490886
  67    -0.0013847219835737
  68     0.0015799245370085
  69    -0.0069131265392083
  70    -1.0031467759301393
  71    -0.0053923335488280
  72     0.0289377435350382
  73     0.0198215093006104
  74    -0.0008837303526547
  75    -0.0000944586857102
  76     0.0015693974347222
  77     0.0034919893781119
  78     0.0010041156754908
  79    -0.0056264636499748
  80     0.0038531925949067
  81     0.0006492219818181
  82    -0.0026434083468125
  83    -0.0001071611424802
  84    -0.0000969975131154
  85     0.0000039283740235
  86    -0.0001096530015391
  87    -0.0000920084929629
  88     0.0006278448287894
  89     0.0011241711281895
  90     0.0004309727645846
  91     0.0010165687570209
  92     0.0005414681826159
  93    -0.0001626232204130
  94    -0.0003721346140785
  95    -0.0035389513109079
  96     0.0024442129281351
  97     0.0000215582996647
  98    -0.0004642372825470
  99    -0.0001545351294076
 100     0.0001157538631054
 101     0.0024036771472444
 102     0.0008540323129625
 103     0.0010555364645083
 104     0.0010637080189789
 105     0.0005864557429651
 106     0.0002508011590556
 107    -0.0000089547606832
 108    -0.0001372737612233
 109     0.0001411755170462
 110    -0.0002519868380980
 111    -0.0005469354728198
 112    -0.0001198619507801
 113     0.0005311712954401
 114    -0.0020838595044346
 115    -0.0001630154040950
 116    -0.0000421147924542
 117    -0.0000484742959660
 118    -0.0031142327902668
 119     0.0054843523381013
 120    -0.0000065555373582
 121     0.0000176249140234
 122    -0.0000035994388347
 123    -0.0027010919488665
 124    -0.0004815185175176
 125    -0.0008997182260586
 126     0.0015207830214906
 127     0.0000390321753495
 128     0.0003279377234435
 129    -0.0000579621815334
 130    -0.0000150850605924
 131     0.0000103066038169
 132    -0.0000986149766768
 133    -0.0000719721349935
 134    -0.0000176350731879
 135    -0.0000906651555752
 136    -0.0000482092113028
 137    -0.0006862756431136
 138    -0.0001417659762910
 139    -0.0001046155784517
 140    -0.0001501891482159
 141     0.0009301138688079
 142     0.0081471706366008
 143     0.0000309369540421
 144     0.0000001461561459
 145     0.0000304871470586
 146     0.0024759411926628
 147    -0.0000672702366650
 148     0.0007664633874655
 149    -0.0016670207430902
 150     0.0021283042903040
 151     0.0000917403894277
 152    -0.0000598654862900
 153     0.0000724049224237
 154     0.0000422163867270
 155    -0.0000243769186668
 156     0.0000510203685789
 157     0.0001666368303900
 158    -0.0000621041548134
 159     0.0004856658013914
 160    -0.0006396772396567
 161     0.0008231722250303
 162    -0.0000610848483825
 163    -0.0000978395900455
 164     0.0038440330192419
 165    -0.0056344450296362
 166    -0.0000193727509506
 167     0.0000334146328029
 168     0.0000112109079931
 169     0.0011446047672245
 170    -0.0003362105040272
 171    -0.0001380487593340
 172    -0.0016205027488587
 173     0.0013878549860350
 174    -0.0002306941140177
 175    -0.0000239931841492
 176     0.0000297436381762
 177     0.0000088479583725
 178    -0.0000107091876262
 179     0.0000022179593007
 180    -0.0001279041575463
 181    -0.0000894927357984
 182    -0.0001783304770569
 183    -0.0001963746460958
 184    -0.0006491026350960
 185     0.0000095400803730
 186     0.0000425941059353
 187    -0.0033432863706628
 188     0.0089042969579996
 189     0.0000600535798593
 190    -0.0000075215290496
 191     0.0000548503333413
 192    -0.0007593866925142
 193     0.0006774100085101
 194     0.0001064116874166
 195     0.0030222661231346
 196     0.0004978605063658
 197     0.0004718759116067
 198    -0.0000894078184728
 199     0.0000701481697744
 200     0.0000066284901658
 201     0.0001384198839524
 202    -0.0000112692587666
 203     0.0004397683447678
 204    -0.0002182912082791
 205    -0.0003178075709478
 206     0.0004235725007784
 207    -0.0005865487040598
 208    -0.0001253596179945
 209    -0.0001914495777240
 210    -0.0092580092352062
 211    -0.0159768421477085
 212    -0.0002404101368508
 213    -0.0000050964018396
 214    -0.0003317769478061
 215    -0.0049939308933078
 216     0.0018466385300845
 217    -0.0083232799895260
 218     0.0027927638221339
 219     0.0006804590741053
 220    -0.0025601597045325
 221     0.0001404694887406
 222     0.0001870924611804
 223     0.0000279966687127
 224    -0.0002313895759817
 225    -0.0000593955340981
 226    -0.0032489030574405
 227    -0.0032603182179455
 228     0.0011779294078411
 229     0.0014142293999392
 230     0.0006118992524249
 231    -0.0000067968244383
 232    -0.0015753645865262
 233    -0.0004452651688211
 234    -0.0000205016748126
 235     0.0000021267929996
 236     0.0000080423005171
 237     0.0001802955510854
 238    -0.0005944700655681
 239     0.0000221665625443
 240    -0.0000737072526578
 241     0.0013245116742886
 242     0.0001551256654555
 243    -0.0000393624756915
 244     0.0000001509360555
 245    -0.0000133198934397
 246    -0.0006281614812218
 247    -0.0007725941419312
 248    -0.0002669173883292
 249     0.0002430238073465
 250    -0.0002703822440272
 251    -0.0014140667857859
 252    -0.0000256867956260
 253    -0.0001204609032141
 254    -0.0000145879510575
 255     0.0017269538070464
 256     0.0004774440483628
 257     0.0004309596266966
 258    -0.0000929835451550
 259    -0.0012097327358694
 260     0.0002980619513559
 261     0.0000109555438294
 262    -0.0000417282701092
 263    -0.0000044313471288
 264     0.0004059049771261
 265    -0.0000806256573989
 266     0.0000121515543266
 267    -0.0000800274016777
 268    -0.0018973195366600
 269     0.0018580215100911
 270     0.0000227213014927
 271    -0.0000186164052611
 272     0.0000014195776049
 273     0.0000160818486649
 274    -0.0003701445311694
 275    -0.0001319138803538
 276    -0.0000194182804181
 277     0.0009393799057307
 278     0.0000317819442844
 279    -0.0000231823886327
 280    -0.0000023200330588
 281     0.0000113297811584
 282     0.0001782617828581
 283     0.0000115652743037
 284    -0.0000874967945280
 285     0.0000192933038375
 286    -0.0017627538515806
 287     0.0005442987352137
 288    -0.0000197533441959
 289     0.0000137183081978
 290     0.0000144745534162
 291    -0.0002933945390877
 292     0.0005203040131120
 293     0.0001192956851742
 294     0.0002019903246656
 295    -0.0024167867656370
 296    -0.0013122732012688
 297    -0.0000075115469864
 298    -0.0000266542402229
 299     0.0002484605818476
 300    -0.0012599823229178
 301     0.0003748992495254
 302    -0.0009958315142345
 Ene=  -11.310511
 Spin=  Alpha
 Occup=    2.000000
   1     0.0000615151072710
   2     0.0001048785327063
   3    -0.0062076704935411
   4     0.0084565163263820
   5     0.0000188320107574
   6     0.0000003126987775
   7     0.0000243310663176
   8     0.0016727955025879
   9    -0.0059096830263670
  10    -0.0002382454943769
  11    -0.0020493840204621
  12     0.0004258202566588
  13    -0.0002150668487593
  14     0.0000474636704683
  15    -0.0000182752033845
  16    -0.0000059681624318
  17    -0.0000009482450918
  18     0.0000192188394729
  19    -0.0000244537977326
  20    -0.0000410806350215
  21     0.0000622237626905
  22     0.0003092664168272
  23     0.0010586089056542
  24    -0.0000617855481082
  25    -0.0001000333868242
  26    -0.0112137953154857
  27    -0.0104886764248282
  28     0.0001685017422648
  29    -0.0000456763519217
  30     0.0000272214506960
  31     0.0083532327789401
  32    -0.0082105391413443
  33    -0.0003554884170962
  34     0.0026432638532862
  35     0.0009643124256863
  36     0.0002509465833812
  37     0.0000158657868699
  38    -0.0000079435189943
  39     0.0000185001244017
  40    -0.0000759233420422
  41     0.0000045972956460
  42     0.0000091829262558
  43     0.0000977841912558
  44     0.0009121052646568
  45    -0.0036302776260058
  46     0.0019859621888544
  47     0.0002522388982705
  48     0.0000099024085091
  49     0.0130768127814124
  50     0.0074335770952004
  51    -0.0002366705239564
  52    -0.0000241684995325
  53    -0.0001470194332901
  54     0.0111770014835129
  55    -0.0040718002283757
  56     0.0013378071929688
  57     0.0014164513058475
  58    -0.0029133158894698
  59     0.0001993062953508
  60    -0.0000691134775230
  61    -0.0000660531062496
  62     0.0000481125066184
  63    -0.0001330673547653
  64    -0.0001101364100829
  65    -0.0008226926726025
  66    -0.0005383582535540
  67    -0.0009275808660374
  68     0.0002350710964075
  69    -0.0054649469324271
  70    -0.0002029921516750
  71    -0.0008317843635980
  72     0.0047491892763110
  73     0.0010749479198013
  74     0.0003771709728125
  75    -0.0002545851576592
  76     0.0000777834689575
  77     0.0020095608055988
  78     0.0007612217760951
  79    -0.0013725228502950
  80     0.0023099785896475
  81     0.0002170115409111
  82    -0.0020195138583899
  83     0.0000143563709096
  84     0.0001289902237427
  85     0.0000283663935015
  86     0.0001093281346293
  87     0.0000789972931460
  88     0.0016041267279792
  89     0.0002520193551692
  90    -0.0001248541638248
  91    -0.0004221902581578
  92    -0.0004935626540175
  93    -0.0001962183607529
  94    -0.0003789578381461
  95    -0.0031367198289072
  96     0.0006656585971174
  97     0.0000636591730716