[Molden Format]
[Atoms] Angs
 c       1                    6  2.397704036853e+00 -5.998578177861e-01  8.496378492125e-01
 c       2                    6  2.213217786200e+00  8.213233182121e-01  9.210877945689e-01
 c       3                    6  1.009158143176e+00  1.406957099662e+00  5.274278510116e-01
 n       4                    7  7.816210119934e-03  5.724150083945e-01  1.596832168574e-01
 b       5                    5  5.056161577522e-02 -8.748005381962e-01  1.569803600892e-01
 c       6                    6  1.368152517148e+00 -1.508350404667e+00  5.411116149216e-01
 c       7                    6 -1.255809469083e+00 -9.581580339442e-01 -8.110575619325e-01
 c       8                    6 -2.670842101596e+00 -5.933156479169e-01 -3.592082037024e-01
 c       9                    6 -2.494872158386e+00  7.560011397818e-01 -4.259784170938e-01
 c      10                    6 -1.059363818148e+00  6.225371842986e-01 -8.863740649900e-01
 h      11                    1  3.415459958528e+00 -9.717486606390e-01  1.005178522469e+00
 h      12                    1  3.042486408344e+00  1.463223582407e+00  1.218997704819e+00
 h      13                    1  8.551214522164e-01  2.485386942198e+00  4.772917692036e-01
 h      14                    1  1.632653956708e+00 -2.569228173858e+00  4.616067373915e-01
 h      15                    1 -1.150554840486e+00 -1.548993945534e+00 -1.730608405865e+00
 h      16                    1 -3.532122449139e+00 -1.208697861292e+00 -8.135856241085e-02
 h      17                    1 -3.124590249757e+00  1.623052117268e+00 -2.085068809625e-01
 h      18                    1 -7.041769984721e-01  1.082254691612e+00 -1.815911323588e+00
[GTO]
1
 s           8
      6.665000000000e+03      6.915839628130e-04
      1.000000000000e+03      5.325796152934e-03
      2.280000000000e+02      2.706072104203e-02
      6.471000000000e+01      1.016568461408e-01
      2.106000000000e+01      2.745748236174e-01
      7.495000000000e+00      4.482943189238e-01
      2.797000000000e+00      2.849026107152e-01
      5.215000000000e-01      1.519485920608e-02
 s           8
      6.665000000000e+03     -2.932696526865e-04
      1.000000000000e+03     -2.318035473975e-03
      2.280000000000e+02     -1.149978603857e-02
      6.471000000000e+01     -4.682672700979e-02
      2.106000000000e+01     -1.284661687505e-01
      7.495000000000e+00     -3.012662724629e-01
      2.797000000000e+00     -2.556307023301e-01
      5.215000000000e-01      1.093793361012e+00
 s           1
      1.596000000000e-01      1.000000000000e+00
 s           1
      4.690000000000e-02      1.000000000000e+00
 p           3
      9.439000000000e+00      5.697925159004e-02
      2.002000000000e+00      3.132072115007e-01
      5.456000000000e-01      7.603767417375e-01
 p           1
      1.517000000000e-01      1.000000000000e+00
 p           1
      4.041000000000e-02      1.000000000000e+00
 d           1
      5.500000000000e-01      1.000000000000e+00
 d           1
      1.510000000000e-01      1.000000000000e+00

2
 s           8
      6.665000000000e+03      6.915839628130e-04
      1.000000000000e+03      5.325796152934e-03
      2.280000000000e+02      2.706072104203e-02
      6.471000000000e+01      1.016568461408e-01
      2.106000000000e+01      2.745748236174e-01
      7.495000000000e+00      4.482943189238e-01
      2.797000000000e+00      2.849026107152e-01
      5.215000000000e-01      1.519485920608e-02
 s           8
      6.665000000000e+03     -2.932696526865e-04
      1.000000000000e+03     -2.318035473975e-03
      2.280000000000e+02     -1.149978603857e-02
      6.471000000000e+01     -4.682672700979e-02
      2.106000000000e+01     -1.284661687505e-01
      7.495000000000e+00     -3.012662724629e-01
      2.797000000000e+00     -2.556307023301e-01
      5.215000000000e-01      1.093793361012e+00
 s           1
      1.596000000000e-01      1.000000000000e+00
 s           1
      4.690000000000e-02      1.000000000000e+00
 p           3
      9.439000000000e+00      5.697925159004e-02
      2.002000000000e+00      3.132072115007e-01
      5.456000000000e-01      7.603767417375e-01
 p           1
      1.517000000000e-01      1.000000000000e+00
 p           1
      4.041000000000e-02      1.000000000000e+00
 d           1
      5.500000000000e-01      1.000000000000e+00
 d           1
      1.510000000000e-01      1.000000000000e+00

3
 s           8
      6.665000000000e+03      6.915839628130e-04
      1.000000000000e+03      5.325796152934e-03
      2.280000000000e+02      2.706072104203e-02
      6.471000000000e+01      1.016568461408e-01
      2.106000000000e+01      2.745748236174e-01
      7.495000000000e+00      4.482943189238e-01
      2.797000000000e+00      2.849026107152e-01
      5.215000000000e-01      1.519485920608e-02
 s           8
      6.665000000000e+03     -2.932696526865e-04
      1.000000000000e+03     -2.318035473975e-03
      2.280000000000e+02     -1.149978603857e-02
      6.471000000000e+01     -4.682672700979e-02
      2.106000000000e+01     -1.284661687505e-01
      7.495000000000e+00     -3.012662724629e-01
      2.797000000000e+00     -2.556307023301e-01
      5.215000000000e-01      1.093793361012e+00
 s           1
      1.596000000000e-01      1.000000000000e+00
 s           1
      4.690000000000e-02      1.000000000000e+00
 p           3
      9.439000000000e+00      5.697925159004e-02
      2.002000000000e+00      3.132072115007e-01
      5.456000000000e-01      7.603767417375e-01
 p           1
      1.517000000000e-01      1.000000000000e+00
 p           1
      4.041000000000e-02      1.000000000000e+00
 d           1
      5.500000000000e-01      1.000000000000e+00
 d           1
      1.510000000000e-01      1.000000000000e+00

4
 s           8
      9.046000000000e+03      6.996174134255e-04
      1.357000000000e+03      5.386054629929e-03
      3.093000000000e+02      2.739102118906e-02
      8.773000000000e+01      1.031505919820e-01
      2.856000000000e+01      2.785706633174e-01
      1.021000000000e+01      4.482948494541e-01
      3.838000000000e+00      2.780859283953e-01
      7.466000000000e-01      1.543156123327e-02
 s           8
      9.046000000000e+03     -3.049900959534e-04
      1.357000000000e+03     -2.408026378508e-03
      3.093000000000e+02     -1.194444872518e-02
      8.773000000000e+01     -4.892599290902e-02
      2.856000000000e+01     -1.344727247250e-01
      1.021000000000e+01     -3.151125777001e-01
      3.838000000000e+00     -2.428578325496e-01
      7.466000000000e-01      1.094382206854e+00
 s           1
      2.248000000000e-01      1.000000000000e+00
 s           1
      6.124000000000e-02      1.000000000000e+00
 p           3
      1.355000000000e+01      5.890567677213e-02
      2.917000000000e+00      3.204611067143e-01
      7.973000000000e-01      7.530420617921e-01
 p           1
      2.185000000000e-01      1.000000000000e+00
 p           1
      5.611000000000e-02      1.000000000000e+00
 d           1
      8.170000000000e-01      1.000000000000e+00
 d           1
      2.300000000000e-01      1.000000000000e+00

5
 s           8
      4.570000000000e+03      6.955544180306e-04
      6.859000000000e+02      5.349572988100e-03
      1.565000000000e+02      2.711662870523e-02
      4.447000000000e+01      1.013150961206e-01
      1.448000000000e+01      2.718808293065e-01
      5.131000000000e+00      4.481159306152e-01
      1.898000000000e+00      2.899372621010e-01
      3.329000000000e-01      1.431283099861e-02
 s           8
      4.570000000000e+03     -2.812802240142e-04
      6.859000000000e+02     -2.219887811105e-03
      1.565000000000e+02     -1.101647150743e-02
      4.447000000000e+01     -4.434918985248e-02
      1.448000000000e+01     -1.209120479502e-01
      5.131000000000e+00     -2.807378995535e-01
      1.898000000000e+00     -2.660668087326e-01
      3.329000000000e-01      1.091784130514e+00
 s           1
      1.043000000000e-01      1.000000000000e+00
 s           1
      3.105000000000e-02      1.000000000000e+00
 p           3
      6.001000000000e+00      5.416586334015e-02
      1.241000000000e+00      3.023798901809e-01
      3.364000000000e-01      7.712922165481e-01
 p           1
      9.538000000000e-02      1.000000000000e+00
 p           1
      2.378000000000e-02      1.000000000000e+00
 d           1
      3.430000000000e-01      1.000000000000e+00
 d           1
      9.040000000000e-02      1.000000000000e+00

6
 s           8
      6.665000000000e+03      6.915839628130e-04
      1.000000000000e+03      5.325796152934e-03
      2.280000000000e+02      2.706072104203e-02
      6.471000000000e+01      1.016568461408e-01
      2.106000000000e+01      2.745748236174e-01
      7.495000000000e+00      4.482943189238e-01
      2.797000000000e+00      2.849026107152e-01
      5.215000000000e-01      1.519485920608e-02
 s           8
      6.665000000000e+03     -2.932696526865e-04
      1.000000000000e+03     -2.318035473975e-03
      2.280000000000e+02     -1.149978603857e-02
      6.471000000000e+01     -4.682672700979e-02
      2.106000000000e+01     -1.284661687505e-01
      7.495000000000e+00     -3.012662724629e-01
      2.797000000000e+00     -2.556307023301e-01
      5.215000000000e-01      1.093793361012e+00
 s           1
      1.596000000000e-01      1.000000000000e+00
 s           1
      4.690000000000e-02      1.000000000000e+00
 p           3
      9.439000000000e+00      5.697925159004e-02
      2.002000000000e+00      3.132072115007e-01
      5.456000000000e-01      7.603767417375e-01
 p           1
      1.517000000000e-01      1.000000000000e+00
 p           1
      4.041000000000e-02      1.000000000000e+00
 d           1
      5.500000000000e-01      1.000000000000e+00
 d           1
      1.510000000000e-01      1.000000000000e+00

7
 s           8
      6.665000000000e+03      6.915839628130e-04
      1.000000000000e+03      5.325796152934e-03
      2.280000000000e+02      2.706072104203e-02
      6.471000000000e+01      1.016568461408e-01
      2.106000000000e+01      2.745748236174e-01
      7.495000000000e+00      4.482943189238e-01
      2.797000000000e+00      2.849026107152e-01
      5.215000000000e-01      1.519485920608e-02
 s           8
      6.665000000000e+03     -2.932696526865e-04
      1.000000000000e+03     -2.318035473975e-03
      2.280000000000e+02     -1.149978603857e-02
      6.471000000000e+01     -4.682672700979e-02
      2.106000000000e+01     -1.284661687505e-01
      7.495000000000e+00     -3.012662724629e-01
      2.797000000000e+00     -2.556307023301e-01
      5.215000000000e-01      1.093793361012e+00
 s           1
      1.596000000000e-01      1.000000000000e+00
 s           1
      4.690000000000e-02      1.000000000000e+00
 p           3
      9.439000000000e+00      5.697925159004e-02
      2.002000000000e+00      3.132072115007e-01
      5.456000000000e-01      7.603767417375e-01
 p           1
      1.517000000000e-01      1.000000000000e+00
 p           1
      4.041000000000e-02      1.000000000000e+00
 d           1
      5.500000000000e-01      1.000000000000e+00
 d           1
      1.510000000000e-01      1.000000000000e+00

8
 s           8
      6.665000000000e+03      6.915839628130e-04
      1.000000000000e+03      5.325796152934e-03
      2.280000000000e+02      2.706072104203e-02
      6.471000000000e+01      1.016568461408e-01
      2.106000000000e+01      2.745748236174e-01
      7.495000000000e+00      4.482943189238e-01
      2.797000000000e+00      2.849026107152e-01
      5.215000000000e-01      1.519485920608e-02
 s           8
      6.665000000000e+03     -2.932696526865e-04
      1.000000000000e+03     -2.318035473975e-03
      2.280000000000e+02     -1.149978603857e-02
      6.471000000000e+01     -4.682672700979e-02
      2.106000000000e+01     -1.284661687505e-01
      7.495000000000e+00     -3.012662724629e-01
      2.797000000000e+00     -2.556307023301e-01
      5.215000000000e-01      1.093793361012e+00
 s           1
      1.596000000000e-01      1.000000000000e+00
 s           1
      4.690000000000e-02      1.000000000000e+00
 p           3
      9.439000000000e+00      5.697925159004e-02
      2.002000000000e+00      3.132072115007e-01
      5.456000000000e-01      7.603767417375e-01
 p           1
      1.517000000000e-01      1.000000000000e+00
 p           1
      4.041000000000e-02      1.000000000000e+00
 d           1
      5.500000000000e-01      1.000000000000e+00
 d           1
      1.510000000000e-01      1.000000000000e+00

9
 s           8
      6.665000000000e+03      6.915839628130e-04
      1.000000000000e+03      5.325796152934e-03
      2.280000000000e+02      2.706072104203e-02
      6.471000000000e+01      1.016568461408e-01
      2.106000000000e+01      2.745748236174e-01
      7.495000000000e+00      4.482943189238e-01
      2.797000000000e+00      2.849026107152e-01
      5.215000000000e-01      1.519485920608e-02
 s           8
      6.665000000000e+03     -2.932696526865e-04
      1.000000000000e+03     -2.318035473975e-03
      2.280000000000e+02     -1.149978603857e-02
      6.471000000000e+01     -4.682672700979e-02
      2.106000000000e+01     -1.284661687505e-01
      7.495000000000e+00     -3.012662724629e-01
      2.797000000000e+00     -2.556307023301e-01
      5.215000000000e-01      1.093793361012e+00
 s           1
      1.596000000000e-01      1.000000000000e+00
 s           1
      4.690000000000e-02      1.000000000000e+00
 p           3
      9.439000000000e+00      5.697925159004e-02
      2.002000000000e+00      3.132072115007e-01
      5.456000000000e-01      7.603767417375e-01
 p           1
      1.517000000000e-01      1.000000000000e+00
 p           1
      4.041000000000e-02      1.000000000000e+00
 d           1
      5.500000000000e-01      1.000000000000e+00
 d           1
      1.510000000000e-01      1.000000000000e+00

10
 s           8
      6.665000000000e+03      6.915839628130e-04
      1.000000000000e+03      5.325796152934e-03
      2.280000000000e+02      2.706072104203e-02
      6.471000000000e+01      1.016568461408e-01
      2.106000000000e+01      2.745748236174e-01
      7.495000000000e+00      4.482943189238e-01
      2.797000000000e+00      2.849026107152e-01
      5.215000000000e-01      1.519485920608e-02
 s           8
      6.665000000000e+03     -2.932696526865e-04
      1.000000000000e+03     -2.318035473975e-03
      2.280000000000e+02     -1.149978603857e-02
      6.471000000000e+01     -4.682672700979e-02
      2.106000000000e+01     -1.284661687505e-01
      7.495000000000e+00     -3.012662724629e-01
      2.797000000000e+00     -2.556307023301e-01
      5.215000000000e-01      1.093793361012e+00
 s           1
      1.596000000000e-01      1.000000000000e+00
 s           1
      4.690000000000e-02      1.000000000000e+00
 p           3
      9.439000000000e+00      5.697925159004e-02
      2.002000000000e+00      3.132072115007e-01
      5.456000000000e-01      7.603767417375e-01
 p           1
      1.517000000000e-01      1.000000000000e+00
 p           1
      4.041000000000e-02      1.000000000000e+00
 d           1
      5.500000000000e-01      1.000000000000e+00
 d           1
      1.510000000000e-01      1.000000000000e+00

11
 s           3
      1.301000000000e+01      3.349872639000e-02
      1.962000000000e+00      2.348008011741e-01
      4.446000000000e-01      8.136829578829e-01
 s           1
      1.220000000000e-01      1.000000000000e+00
 s           1
      2.974000000000e-02      1.000000000000e+00
 p           1
      7.270000000000e-01      1.000000000000e+00
 p           1
      1.410000000000e-01      1.000000000000e+00

12
 s           3
      1.301000000000e+01      3.349872639000e-02
      1.962000000000e+00      2.348008011741e-01
      4.446000000000e-01      8.136829578829e-01
 s           1
      1.220000000000e-01      1.000000000000e+00
 s           1
      2.974000000000e-02      1.000000000000e+00
 p           1
      7.270000000000e-01      1.000000000000e+00
 p           1
      1.410000000000e-01      1.000000000000e+00

13
 s           3
      1.301000000000e+01      3.349872639000e-02
      1.962000000000e+00      2.348008011741e-01
      4.446000000000e-01      8.136829578829e-01
 s           1
      1.220000000000e-01      1.000000000000e+00
 s           1
      2.974000000000e-02      1.000000000000e+00
 p           1
      7.270000000000e-01      1.000000000000e+00
 p           1
      1.410000000000e-01      1.000000000000e+00

14
 s           3
      1.301000000000e+01      3.349872639000e-02
      1.962000000000e+00      2.348008011741e-01
      4.446000000000e-01      8.136829578829e-01
 s           1
      1.220000000000e-01      1.000000000000e+00
 s           1
      2.974000000000e-02      1.000000000000e+00
 p           1
      7.270000000000e-01      1.000000000000e+00
 p           1
      1.410000000000e-01      1.000000000000e+00

15
 s           3
      1.301000000000e+01      3.349872639000e-02
      1.962000000000e+00      2.348008011741e-01
      4.446000000000e-01      8.136829578829e-01
 s           1
      1.220000000000e-01      1.000000000000e+00
 s           1
      2.974000000000e-02      1.000000000000e+00
 p           1
      7.270000000000e-01      1.000000000000e+00
 p           1
      1.410000000000e-01      1.000000000000e+00

16
 s           3
      1.301000000000e+01      3.349872639000e-02
      1.962000000000e+00      2.348008011741e-01
      4.446000000000e-01      8.136829578829e-01
 s           1
      1.220000000000e-01      1.000000000000e+00
 s           1
      2.974000000000e-02      1.000000000000e+00
 p           1
      7.270000000000e-01      1.000000000000e+00
 p           1
      1.410000000000e-01      1.000000000000e+00

17
 s           3
      1.301000000000e+01      3.349872639000e-02
      1.962000000000e+00      2.348008011741e-01
      4.446000000000e-01      8.136829578829e-01
 s           1
      1.220000000000e-01      1.000000000000e+00
 s           1
      2.974000000000e-02      1.000000000000e+00
 p           1
      7.270000000000e-01      1.000000000000e+00
 p           1
      1.410000000000e-01      1.000000000000e+00

18
 s           3
      1.301000000000e+01      3.349872639000e-02
      1.962000000000e+00      2.348008011741e-01
      4.446000000000e-01      8.136829578829e-01
 s           1
      1.220000000000e-01      1.000000000000e+00
 s           1
      2.974000000000e-02      1.000000000000e+00
 p           1
      7.270000000000e-01      1.000000000000e+00
 p           1
      1.410000000000e-01      1.000000000000e+00


[5D]
[7F]
[9G]
[MO]
 Ene=  -15.594555
 Spin=  Alpha
 Occup=    2.000000
   1     0.0000519952885325
   2     0.0000998099252510
   3    -0.0031476358592133
   4    -0.0087975098139575
   5    -0.0000150275096487
   6     0.0000101821251253
   7     0.0000055021321197
   8     0.0004575373852581
   9    -0.0055016134109188
  10    -0.0002621738743830
  11     0.0037719305854920
  12     0.0039649695237028
  13     0.0012509964106074
  14    -0.0000118625066080
  15     0.0000115204451871
  16    -0.0000078286087074
  17     0.0000243129598243
  18    -0.0000327584782800
  19     0.0001144028245449
  20     0.0001534007275185
  21     0.0003272737467708
  22     0.0001361794774989
  23     0.0017787866730982
  24     0.0000176748492839
  25     0.0000533447825987
  26    -0.0047690431517924
  27     0.0110720974776002
  28    -0.0001280556682277
  29     0.0000309195412001
  30    -0.0000041959062932
  31     0.0023927717524630
  32    -0.0069588455597695
  33     0.0007312206531269
  34    -0.0049652012859627
  35     0.0018616454730289
  36    -0.0013651858561263
  37     0.0000230177389148
  38     0.0000163002699377
  39    -0.0000088299223614
  40     0.0000890564591049
  41    -0.0000257732105057
  42    -0.0005926811350652
  43    -0.0001992576138564
  44     0.0007095974958672
  45    -0.0017987121685642
  46     0.0016053776773177
  47    -0.0003318158993675
  48    -0.0005014753810064
  49    -0.0033457210875924
  50    -0.0252533296008899
  51     0.0002660113849265
  52     0.0002185026036524
  53     0.0001673968122027
  54     0.0105505490960307
  55     0.0051956538192814
  56     0.0034148878730391
  57    -0.0018702646345386
  58     0.0046175146490368
  59    -0.0005960067196792
  60     0.0000367301510967
  61     0.0000841504164187
  62     0.0001313459218110
  63     0.0001324132470424
  64     0.0002919558023413
  65     0.0009902943135190
  66    -0.0001756762370100
  67    -0.0014958639429732
  68     0.0016620454087518
  69    -0.0046486382865903
  70    -1.0031731641004544
  71    -0.0055960788933758
  72     0.0266979844836998
  73     0.0134812538587982
  74    -0.0003263500337036
  75    -0.0005832676332844
  76     0.0004715527221205
  77    -0.0001557516024356
  78     0.0026916284749587
  79    -0.0018490281172126
  80     0.0033951493797116
  81     0.0028854012030364
  82     0.0010242992813542
  83     0.0001584071042550
  84    -0.0001404027843966
  85    -0.0001361589552976
  86     0.0000190290520897
  87    -0.0002213667526824
  88    -0.0002577695227140
  89     0.0020981000726579
  90     0.0010278846911386
  91     0.0013680365313325
  92     0.0016893577665830
  93    -0.0002116261954806
  94    -0.0003984474190100
  95     0.0006228733025187
  96     0.0040383393065257
  97     0.0000731224161995
  98    -0.0002859535796400
  99     0.0001270528075578
 100    -0.0015634728725423
 101     0.0023729793930736
 102    -0.0001230462356647
 103     0.0005449809178369
 104     0.0001983149093353
 105     0.0000172827496959
 106     0.0000443044912196
 107    -0.0000361317938534
 108     0.0001018442431128
 109    -0.0000509973645780
 110     0.0001258545155503
 111    -0.0003482595446595
 112    -0.0006915955433117
 113     0.0006808460035583
 114    -0.0015425046678531
 115     0.0012636776809441
 116    -0.0000157736427971
 117    -0.0000036545781225
 118    -0.0013355150573387
 119     0.0117411346044140
 120    -0.0000247220015668
 121     0.0000407114882136
 122     0.0000028591389138
 123    -0.0027027283373204
 124    -0.0008087359479544
 125    -0.0006283207172058
 126     0.0026746707639351
 127     0.0019313823915225
 128     0.0008622803657613
 129    -0.0000536814508708
 130     0.0000265948325789
 131    -0.0000083717751248
 132     0.0000022262886204
 133    -0.0000525718102111
 134     0.0001421578460382
 135    -0.0003462712449801
 136    -0.0001604130314808
 137    -0.0008101519662018
 138    -0.0004874451558795
 139     0.0000058905429526
 140    -0.0000048336055967
 141     0.0033923292876592
 142    -0.0057464727392308
 143     0.0000442651765120
 144     0.0000907760860738
 145    -0.0000276789044480
 146     0.0011044606194516
 147     0.0024205933201416
 148     0.0016218866033393
 149    -0.0003466690728824
 150    -0.0010840683146299
 151    -0.0004791730241366
 152     0.0000156381098869
 153    -0.0000679429027802
 154    -0.0000042309290314
 155    -0.0000495858156066
 156    -0.0000136619452692
 157    -0.0003538808603486
 158     0.0000309561364697
 159     0.0006322483193934
 160    -0.0001161743375124
 161     0.0006790253580520
 162    -0.0000999348276893
 163    -0.0001636031144807
 164     0.0028429578344518
 165     0.0026180843808559
 166    -0.0000641878796672
 167     0.0000361948773073
 168     0.0000104506196319
 169     0.0000122241647075
 170     0.0020341074577887
 171    -0.0004913779118813
 172     0.0009878076324234
 173     0.0005469329587172
 174    -0.0000036494307374
 175    -0.0000658231840759
 176     0.0000136030930978
 177     0.0000263794695928
 178     0.0000017140629198
 179     0.0000458422155194
 180     0.0000251385050400
 181     0.0001287713889426
 182    -0.0002536203037624
 183    -0.0005806078607901
 184    -0.0002016281595793
 185    -0.0000378505936268
 186    -0.0000521160624980
 187    -0.0042072771923933
 188    -0.0009037196510695
 189    -0.0000018991936037
 190    -0.0000084955241501
 191     0.0000345389478343
 192     0.0005199183114211
 193     0.0022284542060019
 194     0.0007237632575351
 195     0.0000251737896766
 196     0.0001722296622633
 197    -0.0000390064193152
 198    -0.0000945317646330
 199     0.0000466695348445
 200     0.0000177827097156
 201     0.0001516071710578
 202    -0.0000685578785331
 203     0.0002675370588387
 204     0.0001279483883909
 205    -0.0004735903922494
 206     0.0010348424848005
 207    -0.0005136674177706
 208     0.0002101337946420
 209     0.0003220616156853
 210    -0.0098179288998968
 211     0.0020403591726372
 212    -0.0002741105589638
 213    -0.0000777064412378
 214    -0.0002915511015368
 215    -0.0060355882101009
 216     0.0038737154624386
 217    -0.0079199397831474
 218     0.0002114599196770
 219    -0.0008033822022686
 220    -0.0008582513434542
 221    -0.0000288302033973
 222    -0.0000282929564566
 223     0.0000584621658068
 224    -0.0001760728553864
 225    -0.0000522148282925
 226    -0.0013702055344493
 227    -0.0033483757509103
 228     0.0017556229443122
 229     0.0008918657323123
 230     0.0014019071130410
 231    -0.0000089805538433
 232     0.0005284204955578
 233    -0.0007274464969944
 234     0.0000211817115440
 235     0.0000024262767718
 236     0.0000022516678175
 237    -0.0001710692991955
 238    -0.0003037085274214
 239    -0.0001035986227023
 240     0.0000203586336680
 241     0.0014944198059934
 242     0.0005732614577398
 243    -0.0000441849664426
 244    -0.0000121150799532
 245    -0.0000202857461026
 246    -0.0005818964891703
 247    -0.0005329597970084
 248    -0.0002958626134165
 249     0.0003026049833049
 250    -0.0008042673138034
 251    -0.0015926555809106
 252    -0.0000421830630550
 253    -0.0001863119824915
 254    -0.0000295584432319
 255     0.0012449217151606
 256     0.0006072064119101
 257     0.0004355053237691
 258    -0.0000556944543455
 259    -0.0009676051822597
 260     0.0005501366384827
 261     0.0000155523019153
 262    -0.0000075597106728
 263    -0.0000062335660758
 264     0.0002155694409682
 265    -0.0000153402365740
 266    -0.0000478164028256
 267    -0.0000319498473482
 268     0.0016757731127302
 269    -0.0004933764893701
 270    -0.0000377309293513
 271    -0.0000283065389984
 272    -0.0000261179993687
 273    -0.0000599762178878
 274     0.0002897032815286
 275     0.0002434146498852
 276    -0.0000052892858203
 277     0.0011214450859358
 278     0.0005529887070641
 279    -0.0000298319639517
 280    -0.0000138501585307
 281     0.0000238987469285
 282     0.0001902051686834
 283     0.0001864900410145
 284    -0.0001005007404226
 285     0.0000263177449340
 286    -0.0009520651693291
 287     0.0001725237182845
 288     0.0000111986398230
 289     0.0000339968631647
 290     0.0000275917124888
 291    -0.0000799198963283
 292     0.0004720190037046
 293     0.0002048815819826
 294     0.0001908351346181
 295    -0.0032095632998230
 296    -0.0004542382958148
 297     0.0000020199536006
 298    -0.0000396452481270
 299     0.0001569819558862
 300    -0.0007696871154269
 301     0.0005614425923337
 302    -0.0007467514580697
 Ene=  -11.286781
 Spin=  Alpha
 Occup=    2.000000
   1    -0.0000293356770269
   2    -0.0000451832903603
   3     0.0009292987693803
   4    -0.0022911430339955
   5     0.0000094782598138
   6     0.0000129959214268
   7    -0.0000085501452261
   8    -0.0016333257816062
   9    -0.0000408457248446
  10    -0.0004061543458487
  11    -0.0005212231749270
  12    -0.0006555299452692
  13    -0.0003149927020295
  14    -0.0000279806136604
  15     0.0000073664747305
  16    -0.0000104175052476
  17     0.0000061488955099
  18     0.0000095728953645
  19     0.0000888909431307
  20     0.0002157658828271
  21    -0.0000852642022604
  22     0.0007971575585559
  23    -0.0000094660522518
  24     0.0005155293442824
  25     0.0000070997449060
  26    -0.0002702022686301
  27    -0.0041135296998081
  28     0.0000393013540687
  29    -0.0000312198338022
  30     0.0000076432383394
  31     0.0002795327984731
  32    -0.0005149429217025
  33     0.0007962279968314
  34     0.0013570746852211
  35    -0.0022161887148896
  36     0.0003477900971595
  37     0.0000052510849395
  38    -0.0000179071989441
  39     0.0000097880063713
  40     0.0000236363120689
  41     0.0000392972286684
  42    -0.0001293764653504
  43    -0.0003762618766697
  44    -0.0001564362872934
  45     0.0000695792797586
  46    -0.0002447168459899
  47     0.0445289957970781
  48     0.0003756069071841
  49    -0.0002097422807646
  50     0.0025694787588154
  51    -0.0001474846380536
  52    -0.0000840954283183
  53    -0.0001240097632169
  54    -0.0001770032478325
  55     0.0003994427867313
  56    -0.0012253825522419
  57     0.0035879125605974
  58    -0.0006415907722084
  59     0.0014867588156063
  60     0.0000420329425896
  61     0.0001245086316429
  62     0.0000913626149078
  63     0.0000701522801784
  64    -0.0000649243540102
  65     0.0000201929950086
  66     0.0003270760943654
  67     0.0006048998075562
  68     0.0010018381834694
  69    -0.0007370948847135
  70    -0.0000965579444606
  71    -0.0004716830833656
  72    -0.0004372446344467
  73    -0.0078249497637770
  74     0.0003669272161157
  75    -0.0000103376038357
  76     0.0002165560740254
  77     0.0002123777089139
  78    -0.0001565233031801
  79    -0.0003253090176487
  80     0.0010531768970877
  81     0.0027161798748057
  82     0.0002207643442149
  83     0.0000143999877730
  84     0.0001014928273468
  85     0.0000170839327569
  86     0.0000277126190561
  87     0.0000711613387725
  88     0.0007950745684721
  89     0.0011072353049606
  90     0.0002549124735770
  91     0.0003716868443752
  92    -0.0005088279795613
  93     0.0003547528311956
  94     0.0005795240349913
  95    -0.0037008032030897
  96    -0.0007382449755061
  97    -0.0001062489951120