[Molden Format]
[Atoms] Angs
 c       1                    6  2.349055507607e+00 -5.429031128588e-01  5.921507915992e-01
 c       2                    6  2.218475498549e+00  8.768975939263e-01  8.222555478896e-01
 c       3                    6  1.009840757946e+00  1.509432266566e+00  7.385382640555e-01
 n       4                    7 -2.026676024604e-01  8.209087325141e-01  5.423533795467e-01
 b       5                    5 -1.431230528307e-01 -6.784786479382e-01  1.476215328029e-01
 c       6                    6  1.271259261711e+00 -1.311224645809e+00  2.461265104360e-01
 c       7                    6 -1.363442720091e+00 -1.361399960505e+00 -4.694558126410e-01
 c       8                    6 -2.607629440502e+00 -6.261693596705e-01 -6.226963225801e-01
 c       9                    6 -2.327334077996e+00  7.135782631002e-01 -6.037253881580e-01
 c      10                    6 -8.504785604336e-01  8.204001502409e-01 -6.933029077466e-01
 h      11                    1  3.343128234308e+00 -9.896074949406e-01  6.958400841468e-01
 h      12                    1  3.095336213176e+00  1.481414668435e+00  1.062487210832e+00
 h      13                    1  9.074469666778e-01  2.586460955567e+00  9.034746320595e-01
 h      14                    1  1.425106503535e+00 -2.383718023834e+00  7.975175218921e-02
 h      15                    1 -1.256312291646e+00 -2.369781078703e+00 -8.848407126410e-01
 h      16                    1 -3.595786830974e+00 -1.091738032953e+00 -6.205702248600e-01
 h      17                    1 -2.963671630152e+00  1.549979606452e+00 -3.039802827341e-01
 h      18                    1 -3.092027364229e-01  9.959481204114e-01 -1.632028054196e+00
[GTO]
1
 s           8
      6.665000000000e+03      6.915839628130e-04
      1.000000000000e+03      5.325796152934e-03
      2.280000000000e+02      2.706072104203e-02
      6.471000000000e+01      1.016568461408e-01
      2.106000000000e+01      2.745748236174e-01
      7.495000000000e+00      4.482943189238e-01
      2.797000000000e+00      2.849026107152e-01
      5.215000000000e-01      1.519485920608e-02
 s           8
      6.665000000000e+03     -2.932696526865e-04
      1.000000000000e+03     -2.318035473975e-03
      2.280000000000e+02     -1.149978603857e-02
      6.471000000000e+01     -4.682672700979e-02
      2.106000000000e+01     -1.284661687505e-01
      7.495000000000e+00     -3.012662724629e-01
      2.797000000000e+00     -2.556307023301e-01
      5.215000000000e-01      1.093793361012e+00
 s           1
      1.596000000000e-01      1.000000000000e+00
 s           1
      4.690000000000e-02      1.000000000000e+00
 p           3
      9.439000000000e+00      5.697925159004e-02
      2.002000000000e+00      3.132072115007e-01
      5.456000000000e-01      7.603767417375e-01
 p           1
      1.517000000000e-01      1.000000000000e+00
 p           1
      4.041000000000e-02      1.000000000000e+00
 d           1
      5.500000000000e-01      1.000000000000e+00
 d           1
      1.510000000000e-01      1.000000000000e+00

2
 s           8
      6.665000000000e+03      6.915839628130e-04
      1.000000000000e+03      5.325796152934e-03
      2.280000000000e+02      2.706072104203e-02
      6.471000000000e+01      1.016568461408e-01
      2.106000000000e+01      2.745748236174e-01
      7.495000000000e+00      4.482943189238e-01
      2.797000000000e+00      2.849026107152e-01
      5.215000000000e-01      1.519485920608e-02
 s           8
      6.665000000000e+03     -2.932696526865e-04
      1.000000000000e+03     -2.318035473975e-03
      2.280000000000e+02     -1.149978603857e-02
      6.471000000000e+01     -4.682672700979e-02
      2.106000000000e+01     -1.284661687505e-01
      7.495000000000e+00     -3.012662724629e-01
      2.797000000000e+00     -2.556307023301e-01
      5.215000000000e-01      1.093793361012e+00
 s           1
      1.596000000000e-01      1.000000000000e+00
 s           1
      4.690000000000e-02      1.000000000000e+00
 p           3
      9.439000000000e+00      5.697925159004e-02
      2.002000000000e+00      3.132072115007e-01
      5.456000000000e-01      7.603767417375e-01
 p           1
      1.517000000000e-01      1.000000000000e+00
 p           1
      4.041000000000e-02      1.000000000000e+00
 d           1
      5.500000000000e-01      1.000000000000e+00
 d           1
      1.510000000000e-01      1.000000000000e+00

3
 s           8
      6.665000000000e+03      6.915839628130e-04
      1.000000000000e+03      5.325796152934e-03
      2.280000000000e+02      2.706072104203e-02
      6.471000000000e+01      1.016568461408e-01
      2.106000000000e+01      2.745748236174e-01
      7.495000000000e+00      4.482943189238e-01
      2.797000000000e+00      2.849026107152e-01
      5.215000000000e-01      1.519485920608e-02
 s           8
      6.665000000000e+03     -2.932696526865e-04
      1.000000000000e+03     -2.318035473975e-03
      2.280000000000e+02     -1.149978603857e-02
      6.471000000000e+01     -4.682672700979e-02
      2.106000000000e+01     -1.284661687505e-01
      7.495000000000e+00     -3.012662724629e-01
      2.797000000000e+00     -2.556307023301e-01
      5.215000000000e-01      1.093793361012e+00
 s           1
      1.596000000000e-01      1.000000000000e+00
 s           1
      4.690000000000e-02      1.000000000000e+00
 p           3
      9.439000000000e+00      5.697925159004e-02
      2.002000000000e+00      3.132072115007e-01
      5.456000000000e-01      7.603767417375e-01
 p           1
      1.517000000000e-01      1.000000000000e+00
 p           1
      4.041000000000e-02      1.000000000000e+00
 d           1
      5.500000000000e-01      1.000000000000e+00
 d           1
      1.510000000000e-01      1.000000000000e+00

4
 s           8
      9.046000000000e+03      6.996174134255e-04
      1.357000000000e+03      5.386054629929e-03
      3.093000000000e+02      2.739102118906e-02
      8.773000000000e+01      1.031505919820e-01
      2.856000000000e+01      2.785706633174e-01
      1.021000000000e+01      4.482948494541e-01
      3.838000000000e+00      2.780859283953e-01
      7.466000000000e-01      1.543156123327e-02
 s           8
      9.046000000000e+03     -3.049900959534e-04
      1.357000000000e+03     -2.408026378508e-03
      3.093000000000e+02     -1.194444872518e-02
      8.773000000000e+01     -4.892599290902e-02
      2.856000000000e+01     -1.344727247250e-01
      1.021000000000e+01     -3.151125777001e-01
      3.838000000000e+00     -2.428578325496e-01
      7.466000000000e-01      1.094382206854e+00
 s           1
      2.248000000000e-01      1.000000000000e+00
 s           1
      6.124000000000e-02      1.000000000000e+00
 p           3
      1.355000000000e+01      5.890567677213e-02
      2.917000000000e+00      3.204611067143e-01
      7.973000000000e-01      7.530420617921e-01
 p           1
      2.185000000000e-01      1.000000000000e+00
 p           1
      5.611000000000e-02      1.000000000000e+00
 d           1
      8.170000000000e-01      1.000000000000e+00
 d           1
      2.300000000000e-01      1.000000000000e+00

5
 s           8
      4.570000000000e+03      6.955544180306e-04
      6.859000000000e+02      5.349572988100e-03
      1.565000000000e+02      2.711662870523e-02
      4.447000000000e+01      1.013150961206e-01
      1.448000000000e+01      2.718808293065e-01
      5.131000000000e+00      4.481159306152e-01
      1.898000000000e+00      2.899372621010e-01
      3.329000000000e-01      1.431283099861e-02
 s           8
      4.570000000000e+03     -2.812802240142e-04
      6.859000000000e+02     -2.219887811105e-03
      1.565000000000e+02     -1.101647150743e-02
      4.447000000000e+01     -4.434918985248e-02
      1.448000000000e+01     -1.209120479502e-01
      5.131000000000e+00     -2.807378995535e-01
      1.898000000000e+00     -2.660668087326e-01
      3.329000000000e-01      1.091784130514e+00
 s           1
      1.043000000000e-01      1.000000000000e+00
 s           1
      3.105000000000e-02      1.000000000000e+00
 p           3
      6.001000000000e+00      5.416586334015e-02
      1.241000000000e+00      3.023798901809e-01
      3.364000000000e-01      7.712922165481e-01
 p           1
      9.538000000000e-02      1.000000000000e+00
 p           1
      2.378000000000e-02      1.000000000000e+00
 d           1
      3.430000000000e-01      1.000000000000e+00
 d           1
      9.040000000000e-02      1.000000000000e+00

6
 s           8
      6.665000000000e+03      6.915839628130e-04
      1.000000000000e+03      5.325796152934e-03
      2.280000000000e+02      2.706072104203e-02
      6.471000000000e+01      1.016568461408e-01
      2.106000000000e+01      2.745748236174e-01
      7.495000000000e+00      4.482943189238e-01
      2.797000000000e+00      2.849026107152e-01
      5.215000000000e-01      1.519485920608e-02
 s           8
      6.665000000000e+03     -2.932696526865e-04
      1.000000000000e+03     -2.318035473975e-03
      2.280000000000e+02     -1.149978603857e-02
      6.471000000000e+01     -4.682672700979e-02
      2.106000000000e+01     -1.284661687505e-01
      7.495000000000e+00     -3.012662724629e-01
      2.797000000000e+00     -2.556307023301e-01
      5.215000000000e-01      1.093793361012e+00
 s           1
      1.596000000000e-01      1.000000000000e+00
 s           1
      4.690000000000e-02      1.000000000000e+00
 p           3
      9.439000000000e+00      5.697925159004e-02
      2.002000000000e+00      3.132072115007e-01
      5.456000000000e-01      7.603767417375e-01
 p           1
      1.517000000000e-01      1.000000000000e+00
 p           1
      4.041000000000e-02      1.000000000000e+00
 d           1
      5.500000000000e-01      1.000000000000e+00
 d           1
      1.510000000000e-01      1.000000000000e+00

7
 s           8
      6.665000000000e+03      6.915839628130e-04
      1.000000000000e+03      5.325796152934e-03
      2.280000000000e+02      2.706072104203e-02
      6.471000000000e+01      1.016568461408e-01
      2.106000000000e+01      2.745748236174e-01
      7.495000000000e+00      4.482943189238e-01
      2.797000000000e+00      2.849026107152e-01
      5.215000000000e-01      1.519485920608e-02
 s           8
      6.665000000000e+03     -2.932696526865e-04
      1.000000000000e+03     -2.318035473975e-03
      2.280000000000e+02     -1.149978603857e-02
      6.471000000000e+01     -4.682672700979e-02
      2.106000000000e+01     -1.284661687505e-01
      7.495000000000e+00     -3.012662724629e-01
      2.797000000000e+00     -2.556307023301e-01
      5.215000000000e-01      1.093793361012e+00
 s           1
      1.596000000000e-01      1.000000000000e+00
 s           1
      4.690000000000e-02      1.000000000000e+00
 p           3
      9.439000000000e+00      5.697925159004e-02
      2.002000000000e+00      3.132072115007e-01
      5.456000000000e-01      7.603767417375e-01
 p           1
      1.517000000000e-01      1.000000000000e+00
 p           1
      4.041000000000e-02      1.000000000000e+00
 d           1
      5.500000000000e-01      1.000000000000e+00
 d           1
      1.510000000000e-01      1.000000000000e+00

8
 s           8
      6.665000000000e+03      6.915839628130e-04
      1.000000000000e+03      5.325796152934e-03
      2.280000000000e+02      2.706072104203e-02
      6.471000000000e+01      1.016568461408e-01
      2.106000000000e+01      2.745748236174e-01
      7.495000000000e+00      4.482943189238e-01
      2.797000000000e+00      2.849026107152e-01
      5.215000000000e-01      1.519485920608e-02
 s           8
      6.665000000000e+03     -2.932696526865e-04
      1.000000000000e+03     -2.318035473975e-03
      2.280000000000e+02     -1.149978603857e-02
      6.471000000000e+01     -4.682672700979e-02
      2.106000000000e+01     -1.284661687505e-01
      7.495000000000e+00     -3.012662724629e-01
      2.797000000000e+00     -2.556307023301e-01
      5.215000000000e-01      1.093793361012e+00
 s           1
      1.596000000000e-01      1.000000000000e+00
 s           1
      4.690000000000e-02      1.000000000000e+00
 p           3
      9.439000000000e+00      5.697925159004e-02
      2.002000000000e+00      3.132072115007e-01
      5.456000000000e-01      7.603767417375e-01
 p           1
      1.517000000000e-01      1.000000000000e+00
 p           1
      4.041000000000e-02      1.000000000000e+00
 d           1
      5.500000000000e-01      1.000000000000e+00
 d           1
      1.510000000000e-01      1.000000000000e+00

9
 s           8
      6.665000000000e+03      6.915839628130e-04
      1.000000000000e+03      5.325796152934e-03
      2.280000000000e+02      2.706072104203e-02
      6.471000000000e+01      1.016568461408e-01
      2.106000000000e+01      2.745748236174e-01
      7.495000000000e+00      4.482943189238e-01
      2.797000000000e+00      2.849026107152e-01
      5.215000000000e-01      1.519485920608e-02
 s           8
      6.665000000000e+03     -2.932696526865e-04
      1.000000000000e+03     -2.318035473975e-03
      2.280000000000e+02     -1.149978603857e-02
      6.471000000000e+01     -4.682672700979e-02
      2.106000000000e+01     -1.284661687505e-01
      7.495000000000e+00     -3.012662724629e-01
      2.797000000000e+00     -2.556307023301e-01
      5.215000000000e-01      1.093793361012e+00
 s           1
      1.596000000000e-01      1.000000000000e+00
 s           1
      4.690000000000e-02      1.000000000000e+00
 p           3
      9.439000000000e+00      5.697925159004e-02
      2.002000000000e+00      3.132072115007e-01
      5.456000000000e-01      7.603767417375e-01
 p           1
      1.517000000000e-01      1.000000000000e+00
 p           1
      4.041000000000e-02      1.000000000000e+00
 d           1
      5.500000000000e-01      1.000000000000e+00
 d           1
      1.510000000000e-01      1.000000000000e+00

10
 s           8
      6.665000000000e+03      6.915839628130e-04
      1.000000000000e+03      5.325796152934e-03
      2.280000000000e+02      2.706072104203e-02
      6.471000000000e+01      1.016568461408e-01
      2.106000000000e+01      2.745748236174e-01
      7.495000000000e+00      4.482943189238e-01
      2.797000000000e+00      2.849026107152e-01
      5.215000000000e-01      1.519485920608e-02
 s           8
      6.665000000000e+03     -2.932696526865e-04
      1.000000000000e+03     -2.318035473975e-03
      2.280000000000e+02     -1.149978603857e-02
      6.471000000000e+01     -4.682672700979e-02
      2.106000000000e+01     -1.284661687505e-01
      7.495000000000e+00     -3.012662724629e-01
      2.797000000000e+00     -2.556307023301e-01
      5.215000000000e-01      1.093793361012e+00
 s           1
      1.596000000000e-01      1.000000000000e+00
 s           1
      4.690000000000e-02      1.000000000000e+00
 p           3
      9.439000000000e+00      5.697925159004e-02
      2.002000000000e+00      3.132072115007e-01
      5.456000000000e-01      7.603767417375e-01
 p           1
      1.517000000000e-01      1.000000000000e+00
 p           1
      4.041000000000e-02      1.000000000000e+00
 d           1
      5.500000000000e-01      1.000000000000e+00
 d           1
      1.510000000000e-01      1.000000000000e+00

11
 s           3
      1.301000000000e+01      3.349872639000e-02
      1.962000000000e+00      2.348008011741e-01
      4.446000000000e-01      8.136829578829e-01
 s           1
      1.220000000000e-01      1.000000000000e+00
 s           1
      2.974000000000e-02      1.000000000000e+00
 p           1
      7.270000000000e-01      1.000000000000e+00
 p           1
      1.410000000000e-01      1.000000000000e+00

12
 s           3
      1.301000000000e+01      3.349872639000e-02
      1.962000000000e+00      2.348008011741e-01
      4.446000000000e-01      8.136829578829e-01
 s           1
      1.220000000000e-01      1.000000000000e+00
 s           1
      2.974000000000e-02      1.000000000000e+00
 p           1
      7.270000000000e-01      1.000000000000e+00
 p           1
      1.410000000000e-01      1.000000000000e+00

13
 s           3
      1.301000000000e+01      3.349872639000e-02
      1.962000000000e+00      2.348008011741e-01
      4.446000000000e-01      8.136829578829e-01
 s           1
      1.220000000000e-01      1.000000000000e+00
 s           1
      2.974000000000e-02      1.000000000000e+00
 p           1
      7.270000000000e-01      1.000000000000e+00
 p           1
      1.410000000000e-01      1.000000000000e+00

14
 s           3
      1.301000000000e+01      3.349872639000e-02
      1.962000000000e+00      2.348008011741e-01
      4.446000000000e-01      8.136829578829e-01
 s           1
      1.220000000000e-01      1.000000000000e+00
 s           1
      2.974000000000e-02      1.000000000000e+00
 p           1
      7.270000000000e-01      1.000000000000e+00
 p           1
      1.410000000000e-01      1.000000000000e+00

15
 s           3
      1.301000000000e+01      3.349872639000e-02
      1.962000000000e+00      2.348008011741e-01
      4.446000000000e-01      8.136829578829e-01
 s           1
      1.220000000000e-01      1.000000000000e+00
 s           1
      2.974000000000e-02      1.000000000000e+00
 p           1
      7.270000000000e-01      1.000000000000e+00
 p           1
      1.410000000000e-01      1.000000000000e+00

16
 s           3
      1.301000000000e+01      3.349872639000e-02
      1.962000000000e+00      2.348008011741e-01
      4.446000000000e-01      8.136829578829e-01
 s           1
      1.220000000000e-01      1.000000000000e+00
 s           1
      2.974000000000e-02      1.000000000000e+00
 p           1
      7.270000000000e-01      1.000000000000e+00
 p           1
      1.410000000000e-01      1.000000000000e+00

17
 s           3
      1.301000000000e+01      3.349872639000e-02
      1.962000000000e+00      2.348008011741e-01
      4.446000000000e-01      8.136829578829e-01
 s           1
      1.220000000000e-01      1.000000000000e+00
 s           1
      2.974000000000e-02      1.000000000000e+00
 p           1
      7.270000000000e-01      1.000000000000e+00
 p           1
      1.410000000000e-01      1.000000000000e+00

18
 s           3
      1.301000000000e+01      3.349872639000e-02
      1.962000000000e+00      2.348008011741e-01
      4.446000000000e-01      8.136829578829e-01
 s           1
      1.220000000000e-01      1.000000000000e+00
 s           1
      2.974000000000e-02      1.000000000000e+00
 p           1
      7.270000000000e-01      1.000000000000e+00
 p           1
      1.410000000000e-01      1.000000000000e+00


[5D]
[7F]
[9G]
[MO]
 Ene=  -15.599442
 Spin=  Alpha
 Occup=    2.000000
   1    -0.0000865665520306
   2    -0.0001541233389681
   3     0.0064105416275961
   4     0.0049041774297561
   5    -0.0000004146436715
   6     0.0000010947371911
   7     0.0000174141005319
   8    -0.0012722159490432
   9     0.0081306368203978
  10     0.0012794879501016
  11    -0.0031210243775854
  12    -0.0028348762393586
  13    -0.0011410374005399
  14    -0.0000052863493253
  15     0.0000010932140668
  16    -0.0000029814590184
  17    -0.0000114898064573
  18    -0.0000286050548680
  19    -0.0001153288104739
  20    -0.0005283926216427
  21    -0.0002599232750431
  22    -0.0009952249372103
  23    -0.0023495370165089
  24     0.0000395226813539
  25     0.0000417721708112
  26     0.0084690927766143
  27    -0.0118303790506261
  28     0.0000735028070209
  29    -0.0000397893010990
  30    -0.0000072101892548
  31    -0.0057785804803385
  32     0.0117597800031525
  33     0.0011575932352227
  34     0.0045778438474542
  35    -0.0026740732864962
  36     0.0003830358250575
  37     0.0000138211188833
  38    -0.0000352988679312
  39    -0.0000100848231400
  40    -0.0001210935948484
  41    -0.0000420051956893
  42     0.0004336233343973
  43    -0.0003168782310724
  44    -0.0011534787263921
  45     0.0028656280996628
  46    -0.0033590346858574
  47     0.0001843451275986
  48     0.0002950754386404
  49    -0.0044598631745657
  50     0.0243913790435336
  51    -0.0002831714579307
  52    -0.0001339589263810
  53    -0.0000708369776614
  54    -0.0158648194784198
  55    -0.0022791120044362
  56    -0.0023928879180187
  57     0.0025886615078774
  58    -0.0041337972878616
  59    -0.0005804479439058
  60    -0.0000382242333019
  61    -0.0000125934642773
  62     0.0000372534515357
  63    -0.0001451185788059
  64    -0.0001467495089491
  65    -0.0006102539992957
  66     0.0005895036159972
  67     0.0014190904367308
  68    -0.0019611807449255
  69     0.0062685276585567
  70     1.0031648586409545
  71     0.0054669924624340
  72    -0.0287539211227661
  73    -0.0194087975819631
  74     0.0008306868706365
  75     0.0000386320887698
  76    -0.0014523557586903
  77    -0.0030665504424021
  78    -0.0006650793617657
  79     0.0054597936806099
  80    -0.0038247039591455
  81    -0.0007475001989819
  82     0.0017599147676488
  83     0.0000658734650527
  84     0.0000851965245566
  85     0.0000312186622598
  86     0.0000879908736314
  87     0.0000975609669468
  88    -0.0005906755090762
  89    -0.0012259924303000
  90    -0.0005049806721676
  91    -0.0009721510137324
  92    -0.0006718724235172
  93     0.0002027810513262
  94     0.0004182348471237
  95     0.0039263919722702
  96    -0.0022548533913617
  97    -0.0000110491744744
  98     0.0004562868288003
  99     0.0001159465973598
 100    -0.0002222540138466
 101    -0.0021863472293902
 102    -0.0009272280007090
 103    -0.0009127066952693
 104    -0.0008830383884472
 105    -0.0005060649670732
 106    -0.0002611230386581
 107     0.0000058009975935
 108     0.0000879408271786
 109    -0.0000441253095415
 110     0.0002219549870497
 111     0.0004478722762718
 112     0.0002147868032713
 113    -0.0003445629393224
 114     0.0016679064241716
 115     0.0000001139306613
 116     0.0000418226762503
 117     0.0000483252801921
 118     0.0030108322369453
 119    -0.0078759252139007
 120     0.0000157809097475
 121    -0.0000240243937265
 122     0.0000069239789395
 123     0.0029749908432364
 124     0.0002919686094217
 125     0.0007292517460982
 126    -0.0021355171836891
 127    -0.0006813384035434
 128    -0.0004866531539197
 129     0.0000609828900536
 130     0.0000122197127024
 131    -0.0000066617158048
 132     0.0000897543399881
 133     0.0000911784396422
 134     0.0000202034440391
 135     0.0000770832107917
 136    -0.0000388209131143
 137     0.0008061107134103
 138     0.0001693681434162
 139     0.0001205530201140
 140     0.0001736498251188
 141    -0.0006663369730514
 142    -0.0057489566918911
 143    -0.0000281759650278
 144     0.0000001242264413
 145    -0.0000320589369914
 146    -0.0026053391603303
 147    -0.0006967371995946
 148    -0.0010361633354809
 149     0.0010731863110367
 150    -0.0014264487462608
 151    -0.0002756009836209
 152     0.0000529276933739
 153    -0.0000760983529216
 154    -0.0000468276863916
 155     0.0000536323002805
 156    -0.0000719914107079
 157    -0.0001205673104131
 158    -0.0000323904577545
 159    -0.0005235967671629
 160     0.0006534477015223
 161    -0.0008908974400175
 162     0.0000597428923628
 163     0.0000967528257772
 164    -0.0035719121616898
 165     0.0028333421460683
 166     0.0000180519906274
 167    -0.0000283032153203
 168    -0.0000061040301084
 169    -0.0008128501560504
 170     0.0006304929985088
 171     0.0001745442637706
 172     0.0010138518510899
 173    -0.0011870222600741
 174     0.0001067038623991
 175     0.0000309655502099
 176    -0.0000313708711667
 177    -0.0000082036933689
 178     0.0000139433235420
 179     0.0000081062293596
 180     0.0001037660116986
 181     0.0001466255089241
 182     0.0001973130956858
 183     0.0000988996165853
 184     0.0006657346551983
 185    -0.0000014602165934
 186    -0.0000307244873089
 187     0.0028843136452834
 188    -0.0074207330468221
 189    -0.0000671044204445
 190     0.0000056650047180
 191    -0.0000431218257638
 192     0.0005169927121824
 193    -0.0002315148150850
 194    -0.0002081671171304
 195    -0.0026269966464884
 196    -0.0005270192833656
 197    -0.0003636281081462
 198     0.0000921115315648
 199    -0.0000653445648471
 200    -0.0000021466521204
 201    -0.0001409188143000
 202     0.0000236416479576
 203    -0.0004596541486661
 204     0.0001476973790717
 205     0.0002505260020071
 206    -0.0003859587875309
 207     0.0006613185234452
 208     0.0000639095989572
 209     0.0000932331068227
 210     0.0095874718898177
 211     0.0135852180308167
 212     0.0002409633227373
 213     0.0000567597338875
 214     0.0003397330957352
 215     0.0050352125964315
 216    -0.0016994424026596
 217     0.0084588951019103
 218    -0.0028211975448018
 219    -0.0002522452171349
 220     0.0026006026957497
 221    -0.0000888569135213
 222    -0.0001783069386138
 223    -0.0000005876394563
 224     0.0002503560449748
 225     0.0000220299859325
 226     0.0032101628036025
 227     0.0033063715518520
 228    -0.0010961697264294
 229    -0.0013435821545620
 230    -0.0000931149347041
 231     0.0000110760502043
 232     0.0008167458466166
 233     0.0005951046785936
 234     0.0000121459960897
 235     0.0000012419737332
 236    -0.0000054835940295
 237    -0.0000549582035591
 238     0.0005110392209518
 239     0.0000604385756038
 240     0.0000700822801238
 241    -0.0005735495234941
 242    -0.0004793306382949
 243     0.0000469052320647
 244     0.0000040773597298
 245     0.0000139309365121
 246     0.0004889587310642
 247     0.0006223456372150
 248     0.0002235059402792
 249    -0.0002562878514065
 250    -0.0005793794710336
 251     0.0017435970107014
 252     0.0000308596965775
 253     0.0001142788153655
 254     0.0000161790249137
 255    -0.0015678780574767
 256    -0.0002891061057008
 257    -0.0003357100056986
 258     0.0000910019221710
 259     0.0011351815229495
 260    -0.0004363990634722
 261    -0.0000117595681674
 262     0.0000376550714854
 263     0.0000084579752978
 264    -0.0003736803541113
 265     0.0000510261780506
 266     0.0000121668003202
 267     0.0000676413274228
 268     0.0006006513272185
 269    -0.0015407547133626
 270    -0.0000294997567640
 271     0.0000106107765125
 272     0.0000044569230993
 273    -0.0001431950812282
 274    -0.0000512681477312
 275     0.0000600025859670
 276     0.0000252889098476
 277    -0.0004171818440018
 278    -0.0001865868449069
 279     0.0000216228507211
 280     0.0000032737658935
 281    -0.0000078171272838
 282    -0.0000606493983331
 283     0.0000511460520051
 284     0.0001126412454712
 285    -0.0000227139683561
 286     0.0013410393781007
 287    -0.0005057616410951
 288     0.0000183204145004
 289    -0.0000158976225914
 290    -0.0000083786725805
 291     0.0001872534043754
 292    -0.0004540109244708
 293    -0.0000840346979906
 294    -0.0001830668481427
 295     0.0020235538346052
 296     0.0013409546795341
 297     0.0000204634431742
 298     0.0000133697823506
 299    -0.0002636775497593
 300     0.0011798151915684
 301    -0.0003212718753364
 302     0.0007627287124408
 Ene=  -11.312579
 Spin=  Alpha
 Occup=    2.000000
   1    -0.0000619693703077
   2    -0.0001023029467443
   3     0.0069224008691435
   4    -0.0060994804083611
   5    -0.0000266226434455
   6     0.0000071178988779
   7    -0.0000206813453292
   8    -0.0016042795187840
   9     0.0055684682779027
  10     0.0003423770296667
  11     0.0013773733424431
  12    -0.0000260485736346
  13     0.0001900185698628
  14    -0.0000443938556352
  15     0.0000185783263181
  16     0.0000084099064601
  17    -0.0000022475550838
  18    -0.0000254051095718
  19     0.0000781914146038
  20    -0.0000241575928118
  21     0.0000772859977422
  22    -0.0004235995053127
  23    -0.0009214380855730
  24     0.0000594507898904
  25     0.0000929107730712
  26     0.0113074882536064
  27     0.0073861929077393
  28    -0.0001544145950913
  29     0.0000356597205184
  30    -0.0000303240004001
  31    -0.0086398190109912
  32     0.0084428339671604
  33     0.0002580498068840
  34    -0.0019946089408792
  35    -0.0008178398238799
  36    -0.0002400549746956
  37    -0.0000185021447223
  38     0.0000128424439466
  39    -0.0000159477108219
  40     0.0000704944130562
  41    -0.0000089775006006
  42    -0.0000018989267346
  43    -0.0000671396145529
  44    -0.0009527837530442
  45     0.0036453397923093
  46    -0.0020751249904543
  47    -0.0002165907114356
  48     0.0000252568720611
  49    -0.0135743394923170
  50    -0.0049229056421891
  51     0.0002295505085218
  52     0.0000420507766704
  53     0.0001318361571149
  54    -0.0112107446403193
  55     0.0039866159423389
  56    -0.0012558024314366
  57    -0.0011320202463535
  58     0.0025412103727228
  59    -0.0001443907358532
  60     0.0000778463663727
  61     0.0000341309315748
  62    -0.0000551548079015
  63     0.0001180753969015
  64     0.0001224508476920
  65     0.0007620225092622
  66     0.0004130305450840
  67     0.0009926461928083
  68    -0.0006189097931427
  69     0.0054900691211455
  70     0.0001919324738527
  71     0.0007500056882924
  72    -0.0044308042007379
  73    -0.0015813347155274
  74    -0.0002940467828325
  75     0.0001560441261787
  76    -0.0001585455458672
  77    -0.0019002640486469
  78    -0.0008556552454343
  79     0.0011619623307595
  80    -0.0023126860079007
  81    -0.0005876228273872
  82     0.0016928950989384
  83    -0.0000188409655728
  84    -0.0001397357831981
  85    -0.0000393160817317
  86    -0.0001013344249017
  87    -0.0000794093434278
  88    -0.0016135462504029
  89    -0.0003044317111685
  90     0.0001132722071707
  91     0.0003526822040257
  92     0.0005589081732353
  93     0.0001641836586145
  94     0.0003477040386781
  95     0.0017333856544730
  96    -0.0001282947427715
  97    -0.0000717718449919