[Molden Format]
[Atoms] Angs
 c       1                    6  2.426645904998e+00 -6.520441855516e-01  6.594208687414e-01
 c       2                    6  2.284518517784e+00  7.747436916415e-01  7.549247901228e-01
 c       3                    6  1.084730441628e+00  1.384373036560e+00  4.892156103790e-01
 n       4                    7 -1.977547535982e-02  6.418112868537e-01  7.480317602960e-02
 b       5                    5 -6.350052885116e-03 -8.325697392556e-01  2.085929264033e-02
 c       6                    6  1.342752890416e+00 -1.465982107589e+00  3.478206281091e-01
 c       7                    6 -1.331124506335e+00 -1.489550435831e+00 -3.958805035855e-01
 c       8                    6 -2.457722249698e+00 -6.924267141490e-01 -5.645370397701e-01
 c       9                    6 -2.323474393321e+00  7.353272445961e-01 -6.004418906758e-01
 c      10                    6 -1.098671450227e+00  1.341248398925e+00 -4.388985633561e-01
 h      11                    1  3.417945877243e+00 -1.076119825852e+00  8.398455550737e-01
 h      12                    1  3.134761463090e+00  1.411685216698e+00  1.012593249262e+00
 h      13                    1  9.187063007084e-01  2.461961213263e+00  5.870431230271e-01
 h      14                    1  1.507553983530e+00 -2.546304986974e+00  2.701380258851e-01
 h      15                    1 -1.420289223596e+00 -2.569050312700e+00 -5.558231186482e-01
 h      16                    1 -3.439999883086e+00 -1.126166899953e+00 -7.887398960238e-01
 h      17                    1 -3.172297431146e+00  1.373084033129e+00 -8.623116069256e-01
 h      18                    1 -8.479107137426e-01  2.325981086190e+00 -8.500317002870e-01
[GTO]
1
 s           8
      6.665000000000e+03      6.915839628130e-04
      1.000000000000e+03      5.325796152934e-03
      2.280000000000e+02      2.706072104203e-02
      6.471000000000e+01      1.016568461408e-01
      2.106000000000e+01      2.745748236174e-01
      7.495000000000e+00      4.482943189238e-01
      2.797000000000e+00      2.849026107152e-01
      5.215000000000e-01      1.519485920608e-02
 s           8
      6.665000000000e+03     -2.932696526865e-04
      1.000000000000e+03     -2.318035473975e-03
      2.280000000000e+02     -1.149978603857e-02
      6.471000000000e+01     -4.682672700979e-02
      2.106000000000e+01     -1.284661687505e-01
      7.495000000000e+00     -3.012662724629e-01
      2.797000000000e+00     -2.556307023301e-01
      5.215000000000e-01      1.093793361012e+00
 s           1
      1.596000000000e-01      1.000000000000e+00
 s           1
      4.690000000000e-02      1.000000000000e+00
 p           3
      9.439000000000e+00      5.697925159004e-02
      2.002000000000e+00      3.132072115007e-01
      5.456000000000e-01      7.603767417375e-01
 p           1
      1.517000000000e-01      1.000000000000e+00
 p           1
      4.041000000000e-02      1.000000000000e+00
 d           1
      5.500000000000e-01      1.000000000000e+00
 d           1
      1.510000000000e-01      1.000000000000e+00

2
 s           8
      6.665000000000e+03      6.915839628130e-04
      1.000000000000e+03      5.325796152934e-03
      2.280000000000e+02      2.706072104203e-02
      6.471000000000e+01      1.016568461408e-01
      2.106000000000e+01      2.745748236174e-01
      7.495000000000e+00      4.482943189238e-01
      2.797000000000e+00      2.849026107152e-01
      5.215000000000e-01      1.519485920608e-02
 s           8
      6.665000000000e+03     -2.932696526865e-04
      1.000000000000e+03     -2.318035473975e-03
      2.280000000000e+02     -1.149978603857e-02
      6.471000000000e+01     -4.682672700979e-02
      2.106000000000e+01     -1.284661687505e-01
      7.495000000000e+00     -3.012662724629e-01
      2.797000000000e+00     -2.556307023301e-01
      5.215000000000e-01      1.093793361012e+00
 s           1
      1.596000000000e-01      1.000000000000e+00
 s           1
      4.690000000000e-02      1.000000000000e+00
 p           3
      9.439000000000e+00      5.697925159004e-02
      2.002000000000e+00      3.132072115007e-01
      5.456000000000e-01      7.603767417375e-01
 p           1
      1.517000000000e-01      1.000000000000e+00
 p           1
      4.041000000000e-02      1.000000000000e+00
 d           1
      5.500000000000e-01      1.000000000000e+00
 d           1
      1.510000000000e-01      1.000000000000e+00

3
 s           8
      6.665000000000e+03      6.915839628130e-04
      1.000000000000e+03      5.325796152934e-03
      2.280000000000e+02      2.706072104203e-02
      6.471000000000e+01      1.016568461408e-01
      2.106000000000e+01      2.745748236174e-01
      7.495000000000e+00      4.482943189238e-01
      2.797000000000e+00      2.849026107152e-01
      5.215000000000e-01      1.519485920608e-02
 s           8
      6.665000000000e+03     -2.932696526865e-04
      1.000000000000e+03     -2.318035473975e-03
      2.280000000000e+02     -1.149978603857e-02
      6.471000000000e+01     -4.682672700979e-02
      2.106000000000e+01     -1.284661687505e-01
      7.495000000000e+00     -3.012662724629e-01
      2.797000000000e+00     -2.556307023301e-01
      5.215000000000e-01      1.093793361012e+00
 s           1
      1.596000000000e-01      1.000000000000e+00
 s           1
      4.690000000000e-02      1.000000000000e+00
 p           3
      9.439000000000e+00      5.697925159004e-02
      2.002000000000e+00      3.132072115007e-01
      5.456000000000e-01      7.603767417375e-01
 p           1
      1.517000000000e-01      1.000000000000e+00
 p           1
      4.041000000000e-02      1.000000000000e+00
 d           1
      5.500000000000e-01      1.000000000000e+00
 d           1
      1.510000000000e-01      1.000000000000e+00

4
 s           8
      9.046000000000e+03      6.996174134255e-04
      1.357000000000e+03      5.386054629929e-03
      3.093000000000e+02      2.739102118906e-02
      8.773000000000e+01      1.031505919820e-01
      2.856000000000e+01      2.785706633174e-01
      1.021000000000e+01      4.482948494541e-01
      3.838000000000e+00      2.780859283953e-01
      7.466000000000e-01      1.543156123327e-02
 s           8
      9.046000000000e+03     -3.049900959534e-04
      1.357000000000e+03     -2.408026378508e-03
      3.093000000000e+02     -1.194444872518e-02
      8.773000000000e+01     -4.892599290902e-02
      2.856000000000e+01     -1.344727247250e-01
      1.021000000000e+01     -3.151125777001e-01
      3.838000000000e+00     -2.428578325496e-01
      7.466000000000e-01      1.094382206854e+00
 s           1
      2.248000000000e-01      1.000000000000e+00
 s           1
      6.124000000000e-02      1.000000000000e+00
 p           3
      1.355000000000e+01      5.890567677213e-02
      2.917000000000e+00      3.204611067143e-01
      7.973000000000e-01      7.530420617921e-01
 p           1
      2.185000000000e-01      1.000000000000e+00
 p           1
      5.611000000000e-02      1.000000000000e+00
 d           1
      8.170000000000e-01      1.000000000000e+00
 d           1
      2.300000000000e-01      1.000000000000e+00

5
 s           8
      4.570000000000e+03      6.955544180306e-04
      6.859000000000e+02      5.349572988100e-03
      1.565000000000e+02      2.711662870523e-02
      4.447000000000e+01      1.013150961206e-01
      1.448000000000e+01      2.718808293065e-01
      5.131000000000e+00      4.481159306152e-01
      1.898000000000e+00      2.899372621010e-01
      3.329000000000e-01      1.431283099861e-02
 s           8
      4.570000000000e+03     -2.812802240142e-04
      6.859000000000e+02     -2.219887811105e-03
      1.565000000000e+02     -1.101647150743e-02
      4.447000000000e+01     -4.434918985248e-02
      1.448000000000e+01     -1.209120479502e-01
      5.131000000000e+00     -2.807378995535e-01
      1.898000000000e+00     -2.660668087326e-01
      3.329000000000e-01      1.091784130514e+00
 s           1
      1.043000000000e-01      1.000000000000e+00
 s           1
      3.105000000000e-02      1.000000000000e+00
 p           3
      6.001000000000e+00      5.416586334015e-02
      1.241000000000e+00      3.023798901809e-01
      3.364000000000e-01      7.712922165481e-01
 p           1
      9.538000000000e-02      1.000000000000e+00
 p           1
      2.378000000000e-02      1.000000000000e+00
 d           1
      3.430000000000e-01      1.000000000000e+00
 d           1
      9.040000000000e-02      1.000000000000e+00

6
 s           8
      6.665000000000e+03      6.915839628130e-04
      1.000000000000e+03      5.325796152934e-03
      2.280000000000e+02      2.706072104203e-02
      6.471000000000e+01      1.016568461408e-01
      2.106000000000e+01      2.745748236174e-01
      7.495000000000e+00      4.482943189238e-01
      2.797000000000e+00      2.849026107152e-01
      5.215000000000e-01      1.519485920608e-02
 s           8
      6.665000000000e+03     -2.932696526865e-04
      1.000000000000e+03     -2.318035473975e-03
      2.280000000000e+02     -1.149978603857e-02
      6.471000000000e+01     -4.682672700979e-02
      2.106000000000e+01     -1.284661687505e-01
      7.495000000000e+00     -3.012662724629e-01
      2.797000000000e+00     -2.556307023301e-01
      5.215000000000e-01      1.093793361012e+00
 s           1
      1.596000000000e-01      1.000000000000e+00
 s           1
      4.690000000000e-02      1.000000000000e+00
 p           3
      9.439000000000e+00      5.697925159004e-02
      2.002000000000e+00      3.132072115007e-01
      5.456000000000e-01      7.603767417375e-01
 p           1
      1.517000000000e-01      1.000000000000e+00
 p           1
      4.041000000000e-02      1.000000000000e+00
 d           1
      5.500000000000e-01      1.000000000000e+00
 d           1
      1.510000000000e-01      1.000000000000e+00

7
 s           8
      6.665000000000e+03      6.915839628130e-04
      1.000000000000e+03      5.325796152934e-03
      2.280000000000e+02      2.706072104203e-02
      6.471000000000e+01      1.016568461408e-01
      2.106000000000e+01      2.745748236174e-01
      7.495000000000e+00      4.482943189238e-01
      2.797000000000e+00      2.849026107152e-01
      5.215000000000e-01      1.519485920608e-02
 s           8
      6.665000000000e+03     -2.932696526865e-04
      1.000000000000e+03     -2.318035473975e-03
      2.280000000000e+02     -1.149978603857e-02
      6.471000000000e+01     -4.682672700979e-02
      2.106000000000e+01     -1.284661687505e-01
      7.495000000000e+00     -3.012662724629e-01
      2.797000000000e+00     -2.556307023301e-01
      5.215000000000e-01      1.093793361012e+00
 s           1
      1.596000000000e-01      1.000000000000e+00
 s           1
      4.690000000000e-02      1.000000000000e+00
 p           3
      9.439000000000e+00      5.697925159004e-02
      2.002000000000e+00      3.132072115007e-01
      5.456000000000e-01      7.603767417375e-01
 p           1
      1.517000000000e-01      1.000000000000e+00
 p           1
      4.041000000000e-02      1.000000000000e+00
 d           1
      5.500000000000e-01      1.000000000000e+00
 d           1
      1.510000000000e-01      1.000000000000e+00

8
 s           8
      6.665000000000e+03      6.915839628130e-04
      1.000000000000e+03      5.325796152934e-03
      2.280000000000e+02      2.706072104203e-02
      6.471000000000e+01      1.016568461408e-01
      2.106000000000e+01      2.745748236174e-01
      7.495000000000e+00      4.482943189238e-01
      2.797000000000e+00      2.849026107152e-01
      5.215000000000e-01      1.519485920608e-02
 s           8
      6.665000000000e+03     -2.932696526865e-04
      1.000000000000e+03     -2.318035473975e-03
      2.280000000000e+02     -1.149978603857e-02
      6.471000000000e+01     -4.682672700979e-02
      2.106000000000e+01     -1.284661687505e-01
      7.495000000000e+00     -3.012662724629e-01
      2.797000000000e+00     -2.556307023301e-01
      5.215000000000e-01      1.093793361012e+00
 s           1
      1.596000000000e-01      1.000000000000e+00
 s           1
      4.690000000000e-02      1.000000000000e+00
 p           3
      9.439000000000e+00      5.697925159004e-02
      2.002000000000e+00      3.132072115007e-01
      5.456000000000e-01      7.603767417375e-01
 p           1
      1.517000000000e-01      1.000000000000e+00
 p           1
      4.041000000000e-02      1.000000000000e+00
 d           1
      5.500000000000e-01      1.000000000000e+00
 d           1
      1.510000000000e-01      1.000000000000e+00

9
 s           8
      6.665000000000e+03      6.915839628130e-04
      1.000000000000e+03      5.325796152934e-03
      2.280000000000e+02      2.706072104203e-02
      6.471000000000e+01      1.016568461408e-01
      2.106000000000e+01      2.745748236174e-01
      7.495000000000e+00      4.482943189238e-01
      2.797000000000e+00      2.849026107152e-01
      5.215000000000e-01      1.519485920608e-02
 s           8
      6.665000000000e+03     -2.932696526865e-04
      1.000000000000e+03     -2.318035473975e-03
      2.280000000000e+02     -1.149978603857e-02
      6.471000000000e+01     -4.682672700979e-02
      2.106000000000e+01     -1.284661687505e-01
      7.495000000000e+00     -3.012662724629e-01
      2.797000000000e+00     -2.556307023301e-01
      5.215000000000e-01      1.093793361012e+00
 s           1
      1.596000000000e-01      1.000000000000e+00
 s           1
      4.690000000000e-02      1.000000000000e+00
 p           3
      9.439000000000e+00      5.697925159004e-02
      2.002000000000e+00      3.132072115007e-01
      5.456000000000e-01      7.603767417375e-01
 p           1
      1.517000000000e-01      1.000000000000e+00
 p           1
      4.041000000000e-02      1.000000000000e+00
 d           1
      5.500000000000e-01      1.000000000000e+00
 d           1
      1.510000000000e-01      1.000000000000e+00

10
 s           8
      6.665000000000e+03      6.915839628130e-04
      1.000000000000e+03      5.325796152934e-03
      2.280000000000e+02      2.706072104203e-02
      6.471000000000e+01      1.016568461408e-01
      2.106000000000e+01      2.745748236174e-01
      7.495000000000e+00      4.482943189238e-01
      2.797000000000e+00      2.849026107152e-01
      5.215000000000e-01      1.519485920608e-02
 s           8
      6.665000000000e+03     -2.932696526865e-04
      1.000000000000e+03     -2.318035473975e-03
      2.280000000000e+02     -1.149978603857e-02
      6.471000000000e+01     -4.682672700979e-02
      2.106000000000e+01     -1.284661687505e-01
      7.495000000000e+00     -3.012662724629e-01
      2.797000000000e+00     -2.556307023301e-01
      5.215000000000e-01      1.093793361012e+00
 s           1
      1.596000000000e-01      1.000000000000e+00
 s           1
      4.690000000000e-02      1.000000000000e+00
 p           3
      9.439000000000e+00      5.697925159004e-02
      2.002000000000e+00      3.132072115007e-01
      5.456000000000e-01      7.603767417375e-01
 p           1
      1.517000000000e-01      1.000000000000e+00
 p           1
      4.041000000000e-02      1.000000000000e+00
 d           1
      5.500000000000e-01      1.000000000000e+00
 d           1
      1.510000000000e-01      1.000000000000e+00

11
 s           3
      1.301000000000e+01      3.349872639000e-02
      1.962000000000e+00      2.348008011741e-01
      4.446000000000e-01      8.136829578829e-01
 s           1
      1.220000000000e-01      1.000000000000e+00
 s           1
      2.974000000000e-02      1.000000000000e+00
 p           1
      7.270000000000e-01      1.000000000000e+00
 p           1
      1.410000000000e-01      1.000000000000e+00

12
 s           3
      1.301000000000e+01      3.349872639000e-02
      1.962000000000e+00      2.348008011741e-01
      4.446000000000e-01      8.136829578829e-01
 s           1
      1.220000000000e-01      1.000000000000e+00
 s           1
      2.974000000000e-02      1.000000000000e+00
 p           1
      7.270000000000e-01      1.000000000000e+00
 p           1
      1.410000000000e-01      1.000000000000e+00

13
 s           3
      1.301000000000e+01      3.349872639000e-02
      1.962000000000e+00      2.348008011741e-01
      4.446000000000e-01      8.136829578829e-01
 s           1
      1.220000000000e-01      1.000000000000e+00
 s           1
      2.974000000000e-02      1.000000000000e+00
 p           1
      7.270000000000e-01      1.000000000000e+00
 p           1
      1.410000000000e-01      1.000000000000e+00

14
 s           3
      1.301000000000e+01      3.349872639000e-02
      1.962000000000e+00      2.348008011741e-01
      4.446000000000e-01      8.136829578829e-01
 s           1
      1.220000000000e-01      1.000000000000e+00
 s           1
      2.974000000000e-02      1.000000000000e+00
 p           1
      7.270000000000e-01      1.000000000000e+00
 p           1
      1.410000000000e-01      1.000000000000e+00

15
 s           3
      1.301000000000e+01      3.349872639000e-02
      1.962000000000e+00      2.348008011741e-01
      4.446000000000e-01      8.136829578829e-01
 s           1
      1.220000000000e-01      1.000000000000e+00
 s           1
      2.974000000000e-02      1.000000000000e+00
 p           1
      7.270000000000e-01      1.000000000000e+00
 p           1
      1.410000000000e-01      1.000000000000e+00

16
 s           3
      1.301000000000e+01      3.349872639000e-02
      1.962000000000e+00      2.348008011741e-01
      4.446000000000e-01      8.136829578829e-01
 s           1
      1.220000000000e-01      1.000000000000e+00
 s           1
      2.974000000000e-02      1.000000000000e+00
 p           1
      7.270000000000e-01      1.000000000000e+00
 p           1
      1.410000000000e-01      1.000000000000e+00

17
 s           3
      1.301000000000e+01      3.349872639000e-02
      1.962000000000e+00      2.348008011741e-01
      4.446000000000e-01      8.136829578829e-01
 s           1
      1.220000000000e-01      1.000000000000e+00
 s           1
      2.974000000000e-02      1.000000000000e+00
 p           1
      7.270000000000e-01      1.000000000000e+00
 p           1
      1.410000000000e-01      1.000000000000e+00

18
 s           3
      1.301000000000e+01      3.349872639000e-02
      1.962000000000e+00      2.348008011741e-01
      4.446000000000e-01      8.136829578829e-01
 s           1
      1.220000000000e-01      1.000000000000e+00
 s           1
      2.974000000000e-02      1.000000000000e+00
 p           1
      7.270000000000e-01      1.000000000000e+00
 p           1
      1.410000000000e-01      1.000000000000e+00


[5D]
[7F]
[9G]
[MO]
 Ene=  -15.634965
 Spin=  Alpha
 Occup=    2.000000
   1     0.0000780274709509
   2     0.0001373144668793
   3    -0.0056719174681519
   4    -0.0050527718567233
   5    -0.0000154419133150
   6    -0.0000069283882835
   7     0.0000092685420858
   8     0.0010780295037452
   9    -0.0063164819472742
  10    -0.0003888949293127
  11     0.0029396945827840
  12     0.0033234521513702
  13     0.0011241942312973
  14     0.0000012432701515
  15     0.0000005435275630
  16    -0.0000111459827760
  17     0.0000233745318799
  18    -0.0000102416275875
  19     0.0002202296260794
  20     0.0003652912799815
  21     0.0002890604878877
  22     0.0006376855599764
  23     0.0014642720897543
  24    -0.0000080900144028
  25     0.0000053121107993
  26    -0.0067622496864080
  27     0.0144821076634430
  28    -0.0001019056508537
  29     0.0000408456376941
  30    -0.0000176772891712
  31     0.0046181503012841
  32    -0.0088890710413582
  33     0.0008545056491510
  34    -0.0055882747570164
  35     0.0025212177302020
  36    -0.0013756093781593
  37    -0.0000000557817680
  38     0.0000329785143386
  39    -0.0000132966337345
  40     0.0000913502254245
  41     0.0000117094621106
  42    -0.0007121565117227
  43    -0.0004233347885464
  44     0.0009773816242013
  45    -0.0027711906468097
  46     0.0018532658440977
  47    -0.0001801418436963
  48    -0.0002777172207456
  49     0.0004785591944109
  50    -0.0287825608117340
  51     0.0002996286967330
  52     0.0001856097675783
  53     0.0001341414030710
  54     0.0130588663807563
  55     0.0027999138964881
  56     0.0037570429135103
  57    -0.0030514227916730
  58     0.0052506159239955
  59     0.0000564956635966
  60     0.0000837324154261
  61     0.0000433458898822
  62     0.0000204787547068
  63     0.0001282279259733
  64     0.0001946230120823
  65     0.0006920467147726
  66    -0.0010274053792290
  67    -0.0016919524925378
  68     0.0013159659457723
  69    -0.0056333091445024
  70    -1.0030894076749648
  71    -0.0054349413793054
  72     0.0279101639565554
  73     0.0213714416301263
  74    -0.0000316820870619
  75    -0.0009064686694180
  76     0.0001530108247120
  77     0.0000649366223148
  78     0.0052919866179482
  79    -0.0002814761875539
  80     0.0009373902929049
  81     0.0036371275371135
  82     0.0002354381476024
  83     0.0001562626049047
  84    -0.0001714072008131
  85     0.0000026817663490
  86    -0.0000164396289548
  87     0.0000026066895485
  88    -0.0004718108842036
  89     0.0013552169291410
  90     0.0000758764665129
  91     0.0015435120986125
  92     0.0000133450848846
  93     0.0000756365373374
  94     0.0000785191220563
  95     0.0003123414292416
  96     0.0040680339633464
  97     0.0000232799843398
  98    -0.0001339219454733
  99     0.0000363250345733
 100    -0.0005737367129106
 101     0.0028123790929370
 102    -0.0001895575110698
 103     0.0000574267525713
 104     0.0011845841816118
 105     0.0000853328785234
 106     0.0000418235502667
 107    -0.0000678251402563
 108     0.0000206201728370
 109    -0.0001450830012185
 110    -0.0000088531611449
 111    -0.0004010926140068
 112    -0.0000735770835587
 113     0.0001728679172404
 114    -0.0020972353142330
 115     0.0002086625042383
 116     0.0000081383332873
 117     0.0000337190181386
 118    -0.0011252229620433
 119     0.0088899934571990
 120    -0.0000318112189620
 121     0.0000468435956644
 122     0.0000022031241830
 123    -0.0017301051720322
 124    -0.0004458399915670
 125    -0.0003996357543345
 126     0.0023633156892900
 127     0.0013940470222580
 128     0.0004909285213397
 129    -0.0000373838247400
 130     0.0000049603754610
 131    -0.0000150463285588
 132    -0.0000322608058800
 133    -0.0000506333524685
 134     0.0001540904612886
 135    -0.0001685965532072
 136     0.0001279374727125
 137    -0.0006609008633078
 138    -0.0000752029119021
 139    -0.0000050775654524
 140    -0.0000095823190740
 141    -0.0010557724865845
 142     0.0065232256446652
 143     0.0000000917771117
 144     0.0000270643882448
 145    -0.0000010253422954
 146     0.0015251962200503
 147    -0.0001400750596580
 148     0.0002643137498571
 149    -0.0011387804069268
 150     0.0009510740727133
 151     0.0000857649007754
 152    -0.0000315771459826
 153     0.0000086922349694
 154     0.0000239586396760
 155    -0.0000274758165166
 156     0.0000411291991192
 157     0.0000364842996727
 158    -0.0001318572712837
 159    -0.0000050386589395
 160    -0.0008959697350799
 161    -0.0000513049051064
 162     0.0000812823640176
 163     0.0001460940523871
 164    -0.0050060203501900
 165    -0.0020983585077837
 166     0.0000095365896865
 167     0.0000013405671093
 168     0.0000150859760076
 169    -0.0015330094569572
 170    -0.0059536239183125
 171    -0.0005761308428414
 172    -0.0020842766294223
 173     0.0024312410177699
 174    -0.0005706145335311
 175     0.0000077655470944
 176     0.0000027965844513
 177     0.0000167804978681
 178     0.0000243067280752
 179     0.0000080640504195
 180     0.0001495381394075
 181     0.0000900425245812
 182    -0.0005083084756599
 183     0.0004802602926842
 184    -0.0016319613520990
 185    -0.0000003028180146
 186     0.0000195105951393
 187    -0.0060742327112431
 188     0.0113546110882979
 189     0.0000928069378605
 190     0.0000381018042304
 191     0.0000378614669041
 192    -0.0035626929526936
 193    -0.0088898220113863
 194    -0.0001333363412762
 195     0.0042499790846886
 196     0.0024534814915805
 197     0.0008711244151322
 198    -0.0000040416763233
 199     0.0000405877018584
 200     0.0000423690522142
 201     0.0000808310133100
 202     0.0000022945519225
 203    -0.0004846393655853
 204    -0.0001192750342759
 205    -0.0011404332505419
 206    -0.0020097070309331
 207    -0.0022270664953678
 208    -0.0001784469288865
 209    -0.0002640241228381
 210    -0.0010336574905134
 211    -0.0235913056553882
 212    -0.0003031986365421
 213     0.0001882008210388
 214    -0.0000989230407034
 215    -0.0127572619977748
 216     0.0032538639390928
 217    -0.0038749445316297
 218     0.0026970114857148
 219     0.0036899965606948
 220    -0.0009146432057219
 221     0.0000583698858269
 222     0.0000884853363468
 223     0.0000472015124094
 224     0.0000884568608449
 225    -0.0002083817473381
 226     0.0003568224910804
 227    -0.0016826157002113
 228     0.0017324690896075
 229     0.0019103139983135
 230     0.0046520437211102
 231     0.0000011098434433
 232    -0.0011529633719249
 233    -0.0003103463539689
 234    -0.0000007506552534
 235     0.0000081136966441
 236    -0.0000034348629392
 237     0.0002624163626682
 238    -0.0004439604749358
 239    -0.0000383924909880
 240    -0.0000120098103343
 241     0.0014473422530165
 242     0.0009593551321833
 243    -0.0000310240187450
 244    -0.0000118855679563
 245    -0.0000142646968578
 246    -0.0005809065858812
 247    -0.0006725118457684
 248    -0.0002275652832122
 249     0.0003060998604135
 250    -0.0000033182950226
 251    -0.0023906160640373
 252    -0.0000278957647310
 253    -0.0001673760836059
 254    -0.0000376640401587
 255     0.0015463802786909
 256     0.0003061223796539
 257     0.0003385497795411
 258    -0.0000241894643406
 259    -0.0013765230954850
 260     0.0010968021443589
 261     0.0000006339529300
 262    -0.0000204796906780
 263     0.0000030910699862
 264     0.0003740151204605
 265    -0.0002096890983577
 266     0.0000925552849053
 267    -0.0000236859637642
 268    -0.0018180094415165
 269     0.0010820371778185
 270     0.0000032797563613
 271    -0.0000100059964730
 272    -0.0000015411452538
 273    -0.0004418927139817
 274    -0.0003198458186107
 275    -0.0002224832341330
 276    -0.0000042176217283
 277    -0.0012632416526028
 278    -0.0000477986819037
 279    -0.0000041555225369
 280     0.0000051696833837
 281     0.0000029979741418
 282    -0.0002835861378573
 283    -0.0004822018798025
 284    -0.0000591905194728
 285     0.0000000401416134
 286     0.0012237873697506
 287     0.0004920362709323
 288     0.0000457685921804
 289    -0.0000096566864219
 290     0.0000181031289006
 291     0.0006507630835088
 292    -0.0005094870175692
 293     0.0002552578465285
 294     0.0003086406411847
 295     0.0008513629702877
 296    -0.0016015551964411
 297     0.0000151123523759
 298    -0.0001507601963696
 299     0.0000966645258794
 300    -0.0012249692299752
 301     0.0001917104273175
 302     0.0001130335852847
 Ene=  -11.291269
 Spin=  Alpha
 Occup=    2.000000
   1    -0.0000254708752388
   2    -0.0000462623593796
   3     0.0034510623907395
   4     0.0036248898486287
   5    -0.0000016994582108
   6     0.0000103347691780
   7    -0.0000012044164026
   8    -0.0013122796214511
   9    -0.0029349548377059
  10    -0.0001353010914336
  11     0.0019505183064482
  12     0.0039447825254684
  13     0.0008248620743303
  14     0.0000142542499964
  15    -0.0000123220970076
  16     0.0000240918152549
  17    -0.0000259736354486
  18     0.0000321130141416
  19    -0.0002556225994653
  20    -0.0000114766512359
  21     0.0000101515466587
  22     0.0006986290890985
  23     0.0010877410496212
  24    -0.0001130803626840
  25    -0.0001465563094278
  26    -0.0023450598473592
  27     0.0061554483530803
  28     0.0000881806552333
  29    -0.0000434608163694
  30     0.0000301019216802
  31     0.0011586765305612
  32    -0.0019377640509180
  33    -0.0012053353792793
  34    -0.0033197294556903
  35     0.0054052930443339
  36    -0.0002691402703739
  37     0.0000201537086242
  38     0.0000185711944120
  39    -0.0000140460076349
  40    -0.0000004335652208
  41    -0.0000081886407916
  42     0.0001575040344633
  43     0.0009186387300343
  44    -0.0000702667975583
  45    -0.0000672691002249
  46     0.0008069501453000
  47    -0.0029804353288719
  48    -0.0005974648285755
  49    -0.0016509226707987
  50    -0.0141964813270377
  51     0.0001454098654857
  52     0.0000690254353970
  53     0.0000060373504458
  54     0.0029871500592008
  55    -0.0006759653344635
  56     0.0013989036818118
  57    -0.0065359828358910
  58     0.0017977806518294
  59    -0.0017351733759988
  60    -0.0001071977447013
  61     0.0000833133258382
  62     0.0000107192828928
  63    -0.0000008127250839
  64    -0.0000184986377053
  65     0.0001056691528613
  66     0.0013695752570276
  67    -0.0012362079296785
  68     0.0008103978881675
  69    -0.0013614226576350
  70     0.0001971107726896
  71     0.0007451486388709
  72    -0.0036442189590834
  73     0.0042358270513558
  74    -0.0002912086421555
  75     0.0001961958719949
  76    -0.0002855384320010
  77     0.0039422172393365
  78    -0.0019653175498084
  79     0.0015686914005001
  80     0.0069465771884026
  81    -0.0055051041635823
  82     0.0021745960480744
  83     0.0000939826012079
  84    -0.0001074751659273
  85     0.0000467044094942
  86    -0.0000008354752295
  87     0.0000057604359409
  88     0.0002756938989648
  89    -0.0005157354206914
  90     0.0008503165896917
  91    -0.0004133439345494
  92     0.0022665335544072
  93    -0.0003103699382534
  94    -0.0005094378008308
  95    -0.0014080450312141
  96     0.0049523871566822
  97     0.0000381559950827