 Entering Gaussian System, Link 0=g16
 Initial command:
 /local/gaussian-16.A03/g16/l1.exe "/scratch/3071323/firstTest/Gau-33786.inp" -scrdir="/scratch/3071323/firstTest/"
 Default CPUs for threads: 0-39
 Default is to use a total of  40 processors:
                               40 via shared-memory
                                1 via Linda
 Entering Link 1 = /local/gaussian-16.A03/g16/l1.exe PID=     33788.
  
 Copyright (c) 1988,1990,1992,1993,1995,1998,2003,2009,2016,
            Gaussian, Inc.  All Rights Reserved.
  
 This is part of the Gaussian(R) 16 program.  It is based on
 the Gaussian(R) 09 system (copyright 2009, Gaussian, Inc.),
 the Gaussian(R) 03 system (copyright 2003, Gaussian, Inc.),
 the Gaussian(R) 98 system (copyright 1998, Gaussian, Inc.),
 the Gaussian(R) 94 system (copyright 1995, Gaussian, Inc.),
 the Gaussian 92(TM) system (copyright 1992, Gaussian, Inc.),
 the Gaussian 90(TM) system (copyright 1990, Gaussian, Inc.),
 the Gaussian 88(TM) system (copyright 1988, Gaussian, Inc.),
 the Gaussian 86(TM) system (copyright 1986, Carnegie Mellon
 University), and the Gaussian 82(TM) system (copyright 1983,
 Carnegie Mellon University). Gaussian is a federally registered
 trademark of Gaussian, Inc.
  
 This software contains proprietary and confidential information,
 including trade secrets, belonging to Gaussian, Inc.
  
 This software is provided under written license and may be
 used, copied, transmitted, or stored only in accord with that
 written license.
  
 The following legend is applicable only to US Government
 contracts under FAR:
  
                    RESTRICTED RIGHTS LEGEND
  
 Use, reproduction and disclosure by the US Government is
 subject to restrictions as set forth in subparagraphs (a)
 and (c) of the Commercial Computer Software - Restricted
 Rights clause in FAR 52.227-19.
  
 Gaussian, Inc.
 340 Quinnipiac St., Bldg. 40, Wallingford CT 06492
  
  
 ---------------------------------------------------------------
 Warning -- This program may not be used in any manner that
 competes with the business of Gaussian, Inc. or will provide
 assistance to any competitor of Gaussian, Inc.  The licensee
 of this program is prohibited from giving any competitor of
 Gaussian, Inc. access to this program.  By using this program,
 the user acknowledges that Gaussian, Inc. is engaged in the
 business of creating and licensing software in the field of
 computational chemistry and represents and warrants to the
 licensee that it is not a competitor of Gaussian, Inc. and that
 it will not use this program in any manner prohibited above.
 ---------------------------------------------------------------
  

 Cite this work as:
 Gaussian 16, Revision A.03,
 M. J. Frisch, G. W. Trucks, H. B. Schlegel, G. E. Scuseria, 
 M. A. Robb, J. R. Cheeseman, G. Scalmani, V. Barone, 
 G. A. Petersson, H. Nakatsuji, X. Li, M. Caricato, A. V. Marenich, 
 J. Bloino, B. G. Janesko, R. Gomperts, B. Mennucci, H. P. Hratchian, 
 J. V. Ortiz, A. F. Izmaylov, J. L. Sonnenberg, D. Williams-Young, 
 F. Ding, F. Lipparini, F. Egidi, J. Goings, B. Peng, A. Petrone, 
 T. Henderson, D. Ranasinghe, V. G. Zakrzewski, J. Gao, N. Rega, 
 G. Zheng, W. Liang, M. Hada, M. Ehara, K. Toyota, R. Fukuda, 
 J. Hasegawa, M. Ishida, T. Nakajima, Y. Honda, O. Kitao, H. Nakai, 
 T. Vreven, K. Throssell, J. A. Montgomery, Jr., J. E. Peralta, 
 F. Ogliaro, M. J. Bearpark, J. J. Heyd, E. N. Brothers, K. N. Kudin, 
 V. N. Staroverov, T. A. Keith, R. Kobayashi, J. Normand, 
 K. Raghavachari, A. P. Rendell, J. C. Burant, S. S. Iyengar, 
 J. Tomasi, M. Cossi, J. M. Millam, M. Klene, C. Adamo, R. Cammi, 
 J. W. Ochterski, R. L. Martin, K. Morokuma, O. Farkas, 
 J. B. Foresman, and D. J. Fox, Gaussian, Inc., Wallingford CT, 2016.
 
 ******************************************
 Gaussian 16:  ES64L-G16RevA.03 25-Dec-2016
                19-Nov-2025 
 ******************************************
 %nprocshared=40
 Will use up to   40 processors via shared memory.
 %mem=90gb
 %chk=hemi_opt_NICS.chk
 -----------------------------------------------
 #p nmr=giao wb97x/aug-cc-pvdz nosymm guess=save
 -----------------------------------------------
 1/38=1,172=1/1;
 2/12=2,15=1,17=6,18=5,40=1/2;
 3/5=16,7=10,11=2,25=1,30=1,74=-57/1,2,3,8;
 4//1;
 5/5=2,38=5/2;
 8/6=1,10=90,11=11/1;
 10/13=100,31=1,45=16/2;
 6/7=2,8=2,9=2,10=2,28=1/1;
 99/9=1/99;
 Leave Link    1 at Wed Nov 19 11:29:55 2025, MaxMem= 12079595520 cpu:               4.9 elap:               0.2
 (Enter /local/gaussian-16.A03/g16/l101.exe)
 --------------------------
 File Created by py.Aroma 5
 --------------------------
 Symbolic Z-matrix:
 Charge =  0 Multiplicity = 1
 C                     2.43048  -0.67783   0.29924 
 C                     2.34649   0.7498    0.30634 
 C                     1.17385   1.38727  -0.01918 
 N                     0.12723   0.60483  -0.34766 
 B                     0.08902  -0.82376  -0.35712 
 C                     1.37953  -1.5208   -0.01259 
 C                    -1.48512  -0.7963   -0.74604 
 C                    -2.44646  -0.56455   0.41055 
 C                    -2.26479   0.76354   0.46969 
 C                    -1.29529   0.77102  -0.70033 
 H                     3.40164  -1.10649   0.56532 
 H                     3.22155   1.34235   0.56844 
 H                     1.06138   2.4723   -0.03417 
 H                     1.55875  -2.59662   0.01574 
 H                    -1.8703   -1.27528  -1.65276 
 H                    -3.03131  -1.25974   1.01389 
 H                    -2.60598   1.54711   1.14482 
 H                    -1.48754   1.40787  -1.57123 
 Bq                    0.98278  -0.06165   0.93951 
 Bq                    1.53276  -0.03184  -0.98316 
 Bq                   -0.88122  -0.06063   0.43294 
 Bq                   -0.40086  -0.06148  -1.50852 
 Bq                   -1.11461  -0.0762    0.4993 
 Bq                   -2.63122   0.16305  -0.78237 
 Bq                    0.0082    0.01124  -0.06659 
 Bq                    0.00668   0.00755  -0.07145 
 Bq                    0.00549  -0.01068  -0.06971 
 Bq                    0.01684   0.0236   -0.03595 
 
 ITRead=  0  0  0  0  0  0  0  0  0  0  0  0  0  0  0  0  0  0  0  0
 ITRead=  0  0  0  0  0  0  0  0
 MicOpt= -1 -1 -1 -1 -1 -1 -1 -1 -1 -1 -1 -1 -1 -1 -1 -1 -1 -1 -1 -1
 MicOpt= -1 -1 -1 -1 -1 -1 -1 -1
 NAtoms=     28 NQM=       28 NQMF=       0 NMMI=      0 NMMIF=      0
                NMic=       0 NMicF=      0.
                    Isotopes and Nuclear Properties:
 (Nuclear quadrupole moments (NQMom) in fm**2, nuclear magnetic moments (NMagM)
  in nuclear magnetons)

  Atom         1           2           3           4           5           6           7           8           9          10
 IAtWgt=          12          12          12          14          11          12          12          12          12          12
 AtmWgt=  12.0000000  12.0000000  12.0000000  14.0030740  11.0093053  12.0000000  12.0000000  12.0000000  12.0000000  12.0000000
 NucSpn=           0           0           0           2           3           0           0           0           0           0
 AtZEff=  -0.0000000  -0.0000000  -0.0000000  -0.0000000  -0.0000000  -0.0000000  -0.0000000  -0.0000000  -0.0000000  -0.0000000
 NQMom=    0.0000000   0.0000000   0.0000000   2.0440000   4.0590000   0.0000000   0.0000000   0.0000000   0.0000000   0.0000000
 NMagM=    0.0000000   0.0000000   0.0000000   0.4037610   2.6886370   0.0000000   0.0000000   0.0000000   0.0000000   0.0000000
 AtZNuc=   6.0000000   6.0000000   6.0000000   7.0000000   5.0000000   6.0000000   6.0000000   6.0000000   6.0000000   6.0000000

  Atom        11          12          13          14          15          16          17          18          19          20
 IAtWgt=           1           1           1           1           1           1           1           1           0           0
 AtmWgt=   1.0078250   1.0078250   1.0078250   1.0078250   1.0078250   1.0078250   1.0078250   1.0078250   0.0000000   0.0000000
 NucSpn=           1           1           1           1           1           1           1           1           0           0
 AtZEff=  -0.0000000  -0.0000000  -0.0000000  -0.0000000  -0.0000000  -0.0000000  -0.0000000  -0.0000000  -0.0000000  -0.0000000
 NQMom=    0.0000000   0.0000000   0.0000000   0.0000000   0.0000000   0.0000000   0.0000000   0.0000000   0.0000000   0.0000000
 NMagM=    2.7928460   2.7928460   2.7928460   2.7928460   2.7928460   2.7928460   2.7928460   2.7928460   0.0000000   0.0000000
 AtZNuc=   1.0000000   1.0000000   1.0000000   1.0000000   1.0000000   1.0000000   1.0000000   1.0000000   0.0000000   0.0000000

  Atom        21          22          23          24          25          26          27          28
 IAtWgt=           0           0           0           0           0           0           0           0
 AtmWgt=   0.0000000   0.0000000   0.0000000   0.0000000   0.0000000   0.0000000   0.0000000   0.0000000
 NucSpn=           0           0           0           0           0           0           0           0
 AtZEff=  -0.0000000  -0.0000000  -0.0000000  -0.0000000  -0.0000000  -0.0000000  -0.0000000  -0.0000000
 NQMom=    0.0000000   0.0000000   0.0000000   0.0000000   0.0000000   0.0000000   0.0000000   0.0000000
 NMagM=    0.0000000   0.0000000   0.0000000   0.0000000   0.0000000   0.0000000   0.0000000   0.0000000
 AtZNuc=   0.0000000   0.0000000   0.0000000   0.0000000   0.0000000   0.0000000   0.0000000   0.0000000
 Leave Link  101 at Wed Nov 19 11:29:55 2025, MaxMem= 12079595520 cpu:               8.4 elap:               0.2
 (Enter /local/gaussian-16.A03/g16/l202.exe)
                          Input orientation:                          
 ---------------------------------------------------------------------
 Center     Atomic      Atomic             Coordinates (Angstroms)
 Number     Number       Type             X           Y           Z
 ---------------------------------------------------------------------
      1          6           0        2.430479   -0.677828    0.299242
      2          6           0        2.346492    0.749804    0.306341
      3          6           0        1.173845    1.387272   -0.019175
      4          7           0        0.127233    0.604831   -0.347663
      5          5           0        0.089021   -0.823763   -0.357117
      6          6           0        1.379528   -1.520799   -0.012585
      7          6           0       -1.485118   -0.796301   -0.746038
      8          6           0       -2.446456   -0.564547    0.410547
      9          6           0       -2.264793    0.763535    0.469685
     10          6           0       -1.295291    0.771021   -0.700332
     11          1           0        3.401638   -1.106490    0.565319
     12          1           0        3.221550    1.342353    0.568443
     13          1           0        1.061378    2.472299   -0.034169
     14          1           0        1.558746   -2.596617    0.015738
     15          1           0       -1.870299   -1.275280   -1.652755
     16          1           0       -3.031311   -1.259735    1.013895
     17          1           0       -2.605975    1.547108    1.144820
     18          1           0       -1.487538    1.407873   -1.571228
     19          0           0        0.982776   -0.061651    0.939505
     20          0           0        1.532757   -0.031843   -0.983157
     21          0           0       -0.881221   -0.060625    0.432941
     22          0           0       -0.400857   -0.061481   -1.508515
     23          0           0       -1.114612   -0.076198    0.499298
     24          0           0       -2.631217    0.163052   -0.782367
     25          0           0        0.008197    0.011235   -0.066587
     26          0           0        0.006675    0.007554   -0.071446
     27          0           0        0.005494   -0.010678   -0.069709
     28          0           0        0.016841    0.023596   -0.035946
 ---------------------------------------------------------------------
                    Distance matrix (angstroms):
                    1          2          3          4          5
     1  C    0.000000
     2  C    1.430118   0.000000
     3  C    2.438269   1.373837   0.000000
     4  N    2.714524   2.318156   1.347410   0.000000
     5  B    2.436089   2.830630   2.485905   1.429136   0.000000
     6  C    1.382872   2.488448   2.915343   2.489744   1.506642
     7  C    4.054448   4.263705   3.516590   2.172913   1.621705
     8  C    4.879520   4.970989   4.135316   2.926808   2.661793
     9  C    4.914484   4.614198   3.528776   2.532792   2.956951
    10  C    4.120640   3.778416   2.634459   1.474981   2.139498
    11  H    1.094394   2.150867   3.394635   3.805770   3.450254
    12  H    2.186182   1.088824   2.130823   3.310285   3.919370
    13  H    3.450927   2.175880   1.090943   2.111479   3.451637
    14  H    2.126510   3.450149   4.002592   3.525700   2.332836
    15  H    4.760665   5.071523   4.361717   3.037798   2.391962
    16  H    5.538998   5.784431   5.075157   3.912397   3.436018
    17  H    5.570567   5.085830   3.958216   3.253585   3.890996
    18  H    4.816603   4.319503   3.080950   2.179329   2.989950
    19  Bq   1.698663   1.708531   1.747842   1.683138   1.749526
    20  Bq   1.693443   1.713459   1.752703   1.668743   1.761657
    21  Bq   3.371375   3.330308   2.554234   1.438455   1.465585
    22  Bq   3.415309   3.391137   2.607049   1.438898   1.465187
    23  Bq   3.601340   3.563531   2.765428   1.650249   1.655606
    24  Bq   5.243827   5.129050   4.069358   2.827222   2.924780
    25  Bq   2.544816   2.480359   1.804012   0.667480   0.887785
    26  Bq   2.545974   2.483627   1.807938   0.669007   0.882880
    27  Bq   2.542000   2.489984   1.822598   0.686243   0.866422
    28  Bq   2.535743   2.464105   1.788450   0.668721   0.909053
                    6          7          8          9         10
     6  C    0.000000
     7  C    3.044511   0.000000
     8  C    3.966310   1.521700   0.000000
     9  C    4.328030   2.125785   1.341753   0.000000
    10  C    3.588884   1.579437   2.083981   1.519516   0.000000
    11  H    2.143491   5.069148   5.875190   5.967795   5.214217
    12  H    3.453734   5.334269   5.982265   5.517676   4.726316
    13  H    4.005810   4.204182   4.661020   3.773216   2.981947
    14  H    1.091011   3.617533   4.508528   5.110395   4.472054
    15  H    3.648536   1.095409   2.257059   2.969368   2.329183
    16  H    4.536223   2.388064   1.090583   2.230994   3.174320
    17  H    5.160995   3.212978   2.241359   1.089128   2.392653
    18  H    4.384810   2.353578   2.955909   2.276977   1.095901
    19  Bq   1.786897   3.077542   3.506042   3.383544   2.927797
    20  Bq   1.783950   3.122209   4.249744   4.143038   2.953377
    21  Bq   2.727927   1.515223   1.644506   1.610857   1.465400
    22  Bq   2.745394   1.515570   2.849623   2.840455   1.465002
    23  Bq   2.927393   1.485491   1.421327   1.424410   1.479708
    24  Bq   4.417465   1.495066   1.409461   1.436134   1.470052
    25  Bq   2.056841   1.828594   2.566029   2.453574   1.636456
    26  Bq   2.055250   1.823925   2.564658   2.454363   1.635083
    27  Bq   2.042474   1.815640   2.559194   2.458568   1.643405
    28  Bq   2.059762   1.852658   2.571595   2.451332   1.649771
                   11         12         13         14         15
    11  H    0.000000
    12  H    2.455458   0.000000
    13  H    4.317862   2.511227   0.000000
    14  H    2.432852   4.311135   5.093503   0.000000
    15  H    5.722033   6.141063   5.025823   4.035858   0.000000
    16  H    6.450390   6.787309   5.637075   4.883871   2.908473
    17  H    6.593089   5.859538   3.961751   5.982490   4.041475
    18  H    5.898381   5.172813   3.161096   5.275817   2.711542
    19  Bq   2.661315   2.668525   2.715718   2.758829   4.041379
    20  Bq   2.654310   2.673555   2.719100   2.752550   3.684466
    21  Bq   4.410696   4.338138   3.226079   3.543833   2.608408
    22  Bq   4.455536   4.405262   3.275953   3.548282   1.911380
    23  Bq   4.632750   4.562825   3.393281   3.705831   2.576857
    24  Bq   6.310573   6.121301   4.419013   5.080210   1.845365
    25  Bq   3.628230   3.535644   2.677140   3.035107   2.774851
    26  Bq   3.629371   3.539289   2.681186   3.032859   2.769338
    27  Bq   3.624618   3.546963   2.698394   3.017776   2.761132
    28  Bq   3.618766   3.517750   2.662181   3.040667   2.804006
                   16         17         18         19         20
    16  H    0.000000
    17  H    2.841904   0.000000
    18  H    4.022714   2.940613   0.000000
    19  Bq   4.189730   3.938197   3.816508   0.000000
    20  Bq   5.130950   4.914313   3.397174   1.999999   0.000000
    21  Bq   2.529478   2.462997   2.557499   1.931604   2.798830
    22  Bq   3.836359   3.806611   1.828609   2.811982   2.003932
    23  Bq   2.310694   2.296951   2.574610   2.143136   3.034502
    24  Bq   2.326146   2.372825   1.865444   4.009524   4.173366
    25  Bq   3.467191   3.265013   2.540033   1.402618   1.779393
    26  Bq   3.466027   3.267334   2.538289   1.406977   1.778116
    27  Bq   3.457821   3.274378   2.548723   1.405771   1.779710
    28  Bq   3.469919   3.254913   2.556652   1.375428   1.788375
                   21         22         23         24         25
    21  Bq   0.000000
    22  Bq   2.000000   0.000000
    23  Bq   0.243140   2.130957   0.000000
    24  Bq   2.142310   2.356313   1.999999   0.000000
    25  Bq   1.022622   1.500590   1.260385   2.738959   0.000000
    26  Bq   1.023432   1.495331   1.260971   2.736432   0.006283
    27  Bq   1.020498   1.495949   1.258054   2.736843   0.022299
    28  Bq   1.016594   1.533026   1.255640   2.754778   0.034152
                   26         27         28
    26  Bq   0.000000
    27  Bq   0.018353   0.000000
    28  Bq   0.040261   0.049431   0.000000
 Symmetry turned off by external request.
 Symmetry turned off:
 Cannot cope with ghost atoms or with translation vectors.
 Stoichiometry    C8H8BN
 Framework group  C1[X(C8H8BN)]
 NumDoF:  NAt=    18 NAtoms=    28
 Deg. of freedom     0
 Full point group                 C1      NOp   1
 Rotational constants (GHZ):           3.2807851           1.1633772           0.9533270
 Leave Link  202 at Wed Nov 19 11:29:55 2025, MaxMem= 12079595520 cpu:               1.1 elap:               0.0
 (Enter /local/gaussian-16.A03/g16/l301.exe)
 Standard basis: Aug-CC-pVDZ (5D, 7F)
 Warning:  center  19 has no basis functions!
 Warning:  center  20 has no basis functions!
 Warning:  center  21 has no basis functions!
 Warning:  center  22 has no basis functions!
 Warning:  center  23 has no basis functions!
 Warning:  center  24 has no basis functions!
 Warning:  center  25 has no basis functions!
 Warning:  center  26 has no basis functions!
 Warning:  center  27 has no basis functions!
 Warning:  center  28 has no basis functions!
 Ernie: Thresh=  0.10000D-02 Tol=  0.10000D-05 Strict=F.
 Ernie:  20 primitive shells out of 306 were deleted.
   302 basis functions,   518 primitive gaussians,   322 cartesian basis functions
    34 alpha electrons       34 beta electrons
       nuclear repulsion energy       460.6796509953 Hartrees.
 IExCor= 4538 DFT=T Ex+Corr=wB97X ExCW=0 ScaHFX=  1.000000
 ScaDFX=  1.000000  1.000000  1.000000  1.000000 ScalE2=  1.000000  1.000000
 IRadAn=      5 IRanWt=     -1 IRanGd=            0 ICorTp=0 IEmpDi=  4
 HFx  wShort=  0.000000 wLong=  0.300000 cFull=  0.157706 cShort=  0.000000 cLong=  0.842294
 DFx  wShort=  0.000000 wLong=  0.300000 cFull=  0.000000 cShort=  0.000000 cLong=  1.000000
 NAtoms=   28 NActive=   28 NUniq=   28 SFac= 1.00D+00 NAtFMM=   60 NAOKFM=F Big=F
 Integral buffers will be    131072 words long.
 Raffenetti 2 integral format.
 Two-electron integral symmetry is turned off.
 Leave Link  301 at Wed Nov 19 11:29:55 2025, MaxMem= 12079595520 cpu:               2.5 elap:               0.1
 (Enter /local/gaussian-16.A03/g16/l302.exe)
 NPDir=0 NMtPBC=     1 NCelOv=     1 NCel=       1 NClECP=     1 NCelD=      1
         NCelK=      1 NCelE2=     1 NClLst=     1 CellRange=     0.0.
 One-electron integrals computed using PRISM.
 NBasis=   302 RedAO= T EigKep=  5.83D-06  NBF=   302
 NBsUse=   302 1.00D-06 EigRej= -1.00D+00 NBFU=   302
 Precomputing XC quadrature grid using
 IXCGrd= 4 IRadAn=           5 IRanWt=          -1 IRanGd=           0 AccXCQ= 0.00D+00.
 Generated NRdTot=       0 NPtTot=           0 NUsed=           0 NTot=          32
 NSgBfM=   322   322   322   322   322 MxSgAt=    28 MxSgA2=    18.
 Leave Link  302 at Wed Nov 19 11:29:56 2025, MaxMem= 12079595520 cpu:              15.5 elap:               0.4
 (Enter /local/gaussian-16.A03/g16/l303.exe)
 DipDrv:  MaxL=1.
 Leave Link  303 at Wed Nov 19 11:29:56 2025, MaxMem= 12079595520 cpu:               7.8 elap:               0.2
 (Enter /local/gaussian-16.A03/g16/l308.exe)
 Leave Link  308 at Wed Nov 19 11:29:56 2025, MaxMem= 12079595520 cpu:               3.5 elap:               0.1
 (Enter /local/gaussian-16.A03/g16/l401.exe)
 ExpMin= 2.38D-02 ExpMax= 9.05D+03 ExpMxC= 3.09D+02 IAcc=3 IRadAn=         5 AccDes= 0.00D+00
 Harris functional with IExCor= 4538 and IRadAn=       5 diagonalized for initial guess.
 HarFok:  IExCor= 4538 AccDes= 0.00D+00 IRadAn=         5 IDoV= 1 UseB2=F ITyADJ=14
 ICtDFT=  3500011 ScaDFX=  1.000000  1.000000  1.000000  1.000000
 FoFCou: FMM=F IPFlag=           0 FMFlag=      100000 FMFlg1=           0
         NFxFlg=           0 DoJE=T BraDBF=F KetDBF=T FulRan=T
         wScrn=  0.000000 ICntrl=       500 IOpCl=  0 I1Cent=   200000004 NGrid=           0
         NMat0=    1 NMatS0=      1 NMatT0=    0 NMatD0=    1 NMtDS0=    0 NMtDT0=    0
 Symmetry not used in FoFCou.
 Harris En= -371.671877757418    
 JPrj=0 DoOrth=F DoCkMO=F.
 Leave Link  401 at Wed Nov 19 11:29:57 2025, MaxMem= 12079595520 cpu:              36.2 elap:               0.9
 (Enter /local/gaussian-16.A03/g16/l502.exe)
 Two-electron integral symmetry not used.
 Closed shell SCF:
 Using DIIS extrapolation, IDIIS=  1040.
 NGot= 12079595520 LenX= 12079372230 LenY= 12079268105
 Requested convergence on RMS density matrix=1.00D-08 within 128 cycles.
 Requested convergence on MAX density matrix=1.00D-06.
 Requested convergence on             energy=1.00D-06.
 No special actions if energy rises.
 Fock matrices will be formed incrementally for  20 cycles.

 Cycle   1  Pass 1  IDiag  1:
 FoFJK:  IHMeth= 1 ICntrl=       0 DoSepK=T KAlg= 0 I1Cent=           0 FoldK=F
 IRaf=         1 NMat=       1 IRICut=       1 DoRegI=T DoRafI=F ISym2E= 0 IDoP0=0 IntGTp=1.
 FoFCou: FMM=F IPFlag=           0 FMFlag=      100000 FMFlg1=           0
         NFxFlg=           0 DoJE=T BraDBF=F KetDBF=F FulRan=T
         wScrn=  0.000000 ICntrl=       500 IOpCl=  0 I1Cent=           0 NGrid=           0
         NMat0=    1 NMatS0=      1 NMatT0=    0 NMatD0=    1 NMtDS0=    0 NMtDT0=    0
 Symmetry not used in FoFCou.
 E= -389.064569551271    
 DIIS: error= 1.01D-02 at cycle   1 NSaved=   1.
 NSaved= 1 IEnMin= 1 EnMin= -389.064569551271     IErMin= 1 ErrMin= 1.01D-02
 ErrMax= 1.01D-02  0.00D+00 EMaxC= 1.00D-01 BMatC= 1.23D-01 BMatP= 1.23D-01
 IDIUse=3 WtCom= 8.99D-01 WtEn= 1.01D-01
 Coeff-Com:  0.100D+01
 Coeff-En:   0.100D+01
 Coeff:      0.100D+01
 Gap=     0.336 Goal=   None    Shift=    0.000
 GapD=    0.336 DampG=1.000 DampE=0.500 DampFc=0.5000 IDamp=-1.
 Damping current iteration by 5.00D-01
 RMSDP=9.84D-03 MaxDP=5.57D-01              OVMax= 1.71D-01

 Cycle   2  Pass 1  IDiag  1:
 RMSU=  3.31D-03    CP:  9.09D-01
 E= -389.104483527823     Delta-E=       -0.039913976552 Rises=F Damp=T
 DIIS: error= 4.60D-03 at cycle   2 NSaved=   2.
 NSaved= 2 IEnMin= 2 EnMin= -389.104483527823     IErMin= 2 ErrMin= 4.60D-03
 ErrMax= 4.60D-03  0.00D+00 EMaxC= 1.00D-01 BMatC= 1.99D-02 BMatP= 1.23D-01
 IDIUse=3 WtCom= 9.54D-01 WtEn= 4.60D-02
 Coeff-Com: -0.152D+00 0.115D+01
 Coeff-En:   0.000D+00 0.100D+01
 Coeff:     -0.145D+00 0.115D+01
 Gap=     0.360 Goal=   None    Shift=    0.000
 RMSDP=4.60D-03 MaxDP=2.82D-01 DE=-3.99D-02 OVMax= 1.08D-01

 Cycle   3  Pass 1  IDiag  1:
 RMSU=  2.17D-03    CP:  8.26D-01  1.69D+00
 E= -389.145566799380     Delta-E=       -0.041083271557 Rises=F Damp=F
 DIIS: error= 2.23D-03 at cycle   3 NSaved=   3.
 NSaved= 3 IEnMin= 3 EnMin= -389.145566799380     IErMin= 3 ErrMin= 2.23D-03
 ErrMax= 2.23D-03  0.00D+00 EMaxC= 1.00D-01 BMatC= 4.90D-03 BMatP= 1.99D-02
 IDIUse=3 WtCom= 9.78D-01 WtEn= 2.23D-02
 Coeff-Com: -0.187D+00 0.392D+00 0.795D+00
 Coeff-En:   0.000D+00 0.000D+00 0.100D+01
 Coeff:     -0.183D+00 0.384D+00 0.800D+00
 Gap=     0.354 Goal=   None    Shift=    0.000
 RMSDP=6.63D-04 MaxDP=2.54D-02 DE=-4.11D-02 OVMax= 3.08D-02

 Cycle   4  Pass 1  IDiag  1:
 RMSU=  4.54D-04    CP:  8.17D-01  1.77D+00  8.86D-01
 E= -389.150246364714     Delta-E=       -0.004679565334 Rises=F Damp=F
 DIIS: error= 8.61D-04 at cycle   4 NSaved=   4.
 NSaved= 4 IEnMin= 4 EnMin= -389.150246364714     IErMin= 4 ErrMin= 8.61D-04
 ErrMax= 8.61D-04  0.00D+00 EMaxC= 1.00D-01 BMatC= 5.12D-04 BMatP= 4.90D-03
 IDIUse=3 WtCom= 9.91D-01 WtEn= 8.61D-03
 Coeff-Com: -0.697D-01 0.117D+00 0.365D+00 0.587D+00
 Coeff-En:   0.000D+00 0.000D+00 0.000D+00 0.100D+01
 Coeff:     -0.691D-01 0.116D+00 0.362D+00 0.591D+00
 Gap=     0.350 Goal=   None    Shift=    0.000
 RMSDP=2.16D-04 MaxDP=6.48D-03 DE=-4.68D-03 OVMax= 5.54D-03

 Cycle   5  Pass 1  IDiag  1:
 RMSU=  1.78D-04    CP:  8.15D-01  1.78D+00  8.83D-01  8.76D-01
 E= -389.150755096022     Delta-E=       -0.000508731308 Rises=F Damp=F
 DIIS: error= 1.42D-04 at cycle   5 NSaved=   5.
 NSaved= 5 IEnMin= 5 EnMin= -389.150755096022     IErMin= 5 ErrMin= 1.42D-04
 ErrMax= 1.42D-04  0.00D+00 EMaxC= 1.00D-01 BMatC= 1.64D-05 BMatP= 5.12D-04
 IDIUse=3 WtCom= 9.99D-01 WtEn= 1.42D-03
 Coeff-Com:  0.129D-01-0.290D-01-0.264D-01 0.179D-01 0.102D+01
 Coeff-En:   0.000D+00 0.000D+00 0.000D+00 0.000D+00 0.100D+01
 Coeff:      0.129D-01-0.290D-01-0.263D-01 0.179D-01 0.102D+01
 Gap=     0.349 Goal=   None    Shift=    0.000
 RMSDP=8.77D-05 MaxDP=2.94D-03 DE=-5.09D-04 OVMax= 3.84D-03

 Cycle   6  Pass 1  IDiag  1:
 RMSU=  6.28D-05    CP:  8.15D-01  1.78D+00  8.94D-01  9.52D-01  1.24D+00
 E= -389.150803662694     Delta-E=       -0.000048566673 Rises=F Damp=F
 DIIS: error= 9.72D-05 at cycle   6 NSaved=   6.
 NSaved= 6 IEnMin= 6 EnMin= -389.150803662694     IErMin= 6 ErrMin= 9.72D-05
 ErrMax= 9.72D-05  0.00D+00 EMaxC= 1.00D-01 BMatC= 5.74D-06 BMatP= 1.64D-05
 IDIUse=1 WtCom= 1.00D+00 WtEn= 0.00D+00
 Coeff-Com:  0.180D-01-0.338D-01-0.698D-01-0.993D-01 0.402D+00 0.782D+00
 Coeff:      0.180D-01-0.338D-01-0.698D-01-0.993D-01 0.402D+00 0.782D+00
 Gap=     0.349 Goal=   None    Shift=    0.000
 RMSDP=3.72D-05 MaxDP=1.66D-03 DE=-4.86D-05 OVMax= 2.84D-03

 Cycle   7  Pass 1  IDiag  1:
 RMSU=  2.51D-05    CP:  8.15D-01  1.78D+00  8.93D-01  9.84D-01  1.36D+00
                    CP:  1.04D+00
 E= -389.150817423782     Delta-E=       -0.000013761088 Rises=F Damp=F
 DIIS: error= 2.91D-05 at cycle   7 NSaved=   7.
 NSaved= 7 IEnMin= 7 EnMin= -389.150817423782     IErMin= 7 ErrMin= 2.91D-05
 ErrMax= 2.91D-05  0.00D+00 EMaxC= 1.00D-01 BMatC= 5.60D-07 BMatP= 5.74D-06
 IDIUse=1 WtCom= 1.00D+00 WtEn= 0.00D+00
 Coeff-Com: -0.471D-04 0.719D-03 0.111D-02-0.794D-02-0.115D+00 0.514D-01
 Coeff-Com:  0.107D+01
 Coeff:     -0.471D-04 0.719D-03 0.111D-02-0.794D-02-0.115D+00 0.514D-01
 Coeff:      0.107D+01
 Gap=     0.349 Goal=   None    Shift=    0.000
 RMSDP=1.66D-05 MaxDP=8.85D-04 DE=-1.38D-05 OVMax= 1.23D-03

 Cycle   8  Pass 1  IDiag  1:
 RMSU=  9.20D-06    CP:  8.15D-01  1.78D+00  8.94D-01  9.87D-01  1.39D+00
                    CP:  1.16D+00  1.21D+00
 E= -389.150820131281     Delta-E=       -0.000002707499 Rises=F Damp=F
 DIIS: error= 1.85D-05 at cycle   8 NSaved=   8.
 NSaved= 8 IEnMin= 8 EnMin= -389.150820131281     IErMin= 8 ErrMin= 1.85D-05
 ErrMax= 1.85D-05  0.00D+00 EMaxC= 1.00D-01 BMatC= 1.19D-07 BMatP= 5.60D-07
 IDIUse=1 WtCom= 1.00D+00 WtEn= 0.00D+00
 Coeff-Com: -0.377D-02 0.724D-02 0.161D-01 0.204D-01-0.120D+00-0.157D+00
 Coeff-Com:  0.269D+00 0.969D+00
 Coeff:     -0.377D-02 0.724D-02 0.161D-01 0.204D-01-0.120D+00-0.157D+00
 Coeff:      0.269D+00 0.969D+00
 Gap=     0.349 Goal=   None    Shift=    0.000
 RMSDP=7.08D-06 MaxDP=2.11D-04 DE=-2.71D-06 OVMax= 7.29D-04

 Cycle   9  Pass 1  IDiag  1:
 RMSU=  4.75D-06    CP:  8.15D-01  1.78D+00  8.94D-01  9.85D-01  1.39D+00
                    CP:  1.18D+00  1.36D+00  1.20D+00
 E= -389.150820651521     Delta-E=       -0.000000520240 Rises=F Damp=F
 DIIS: error= 4.09D-06 at cycle   9 NSaved=   9.
 NSaved= 9 IEnMin= 9 EnMin= -389.150820651521     IErMin= 9 ErrMin= 4.09D-06
 ErrMax= 4.09D-06  0.00D+00 EMaxC= 1.00D-01 BMatC= 1.48D-08 BMatP= 1.19D-07
 IDIUse=1 WtCom= 1.00D+00 WtEn= 0.00D+00
 Coeff-Com: -0.103D-02 0.189D-02 0.454D-02 0.716D-02-0.215D-01-0.508D-01
 Coeff-Com: -0.591D-01 0.289D+00 0.830D+00
 Coeff:     -0.103D-02 0.189D-02 0.454D-02 0.716D-02-0.215D-01-0.508D-01
 Coeff:     -0.591D-01 0.289D+00 0.830D+00
 Gap=     0.349 Goal=   None    Shift=    0.000
 RMSDP=2.18D-06 MaxDP=9.08D-05 DE=-5.20D-07 OVMax= 1.69D-04

 Cycle  10  Pass 1  IDiag  1:
 RMSU=  1.44D-06    CP:  8.15D-01  1.78D+00  8.95D-01  9.85D-01  1.39D+00
                    CP:  1.18D+00  1.38D+00  1.34D+00  1.15D+00
 E= -389.150820696430     Delta-E=       -0.000000044909 Rises=F Damp=F
 DIIS: error= 2.43D-06 at cycle  10 NSaved=  10.
 NSaved=10 IEnMin=10 EnMin= -389.150820696430     IErMin=10 ErrMin= 2.43D-06
 ErrMax= 2.43D-06  0.00D+00 EMaxC= 1.00D-01 BMatC= 2.09D-09 BMatP= 1.48D-08
 IDIUse=1 WtCom= 1.00D+00 WtEn= 0.00D+00
 Coeff-Com:  0.307D-03-0.613D-03-0.117D-02-0.109D-02 0.107D-01 0.108D-01
 Coeff-Com: -0.517D-01-0.697D-01 0.210D+00 0.893D+00
 Coeff:      0.307D-03-0.613D-03-0.117D-02-0.109D-02 0.107D-01 0.108D-01
 Coeff:     -0.517D-01-0.697D-01 0.210D+00 0.893D+00
 Gap=     0.349 Goal=   None    Shift=    0.000
 RMSDP=1.10D-06 MaxDP=7.49D-05 DE=-4.49D-08 OVMax= 5.43D-05

 Cycle  11  Pass 1  IDiag  1:
 RMSU=  5.74D-07    CP:  8.15D-01  1.78D+00  8.95D-01  9.84D-01  1.39D+00
                    CP:  1.18D+00  1.37D+00  1.37D+00  1.25D+00  1.09D+00
 E= -389.150820702051     Delta-E=       -0.000000005621 Rises=F Damp=F
 DIIS: error= 5.90D-07 at cycle  11 NSaved=  11.
 NSaved=11 IEnMin=11 EnMin= -389.150820702051     IErMin=11 ErrMin= 5.90D-07
 ErrMax= 5.90D-07  0.00D+00 EMaxC= 1.00D-01 BMatC= 3.51D-10 BMatP= 2.09D-09
 IDIUse=1 WtCom= 1.00D+00 WtEn= 0.00D+00
 Coeff-Com:  0.278D-03-0.528D-03-0.111D-02-0.147D-02 0.701D-02 0.130D-01
 Coeff-Com: -0.772D-02-0.711D-01-0.497D-01 0.300D+00 0.811D+00
 Coeff:      0.278D-03-0.528D-03-0.111D-02-0.147D-02 0.701D-02 0.130D-01
 Coeff:     -0.772D-02-0.711D-01-0.497D-01 0.300D+00 0.811D+00
 Gap=     0.349 Goal=   None    Shift=    0.000
 RMSDP=4.37D-07 MaxDP=2.44D-05 DE=-5.62D-09 OVMax= 1.50D-05

 Cycle  12  Pass 1  IDiag  1:
 RMSU=  2.10D-07    CP:  8.15D-01  1.78D+00  8.95D-01  9.84D-01  1.39D+00
                    CP:  1.18D+00  1.37D+00  1.37D+00  1.29D+00  1.18D+00
                    CP:  1.19D+00
 E= -389.150820702882     Delta-E=       -0.000000000831 Rises=F Damp=F
 DIIS: error= 2.29D-07 at cycle  12 NSaved=  12.
 NSaved=12 IEnMin=12 EnMin= -389.150820702882     IErMin=12 ErrMin= 2.29D-07
 ErrMax= 2.29D-07  0.00D+00 EMaxC= 1.00D-01 BMatC= 3.55D-11 BMatP= 3.51D-10
 IDIUse=1 WtCom= 1.00D+00 WtEn= 0.00D+00
 Coeff-Com:  0.350D-04-0.634D-04-0.136D-03-0.228D-03 0.272D-03 0.243D-02
 Coeff-Com:  0.354D-02-0.106D-01-0.347D-01-0.409D-01 0.147D+00 0.934D+00
 Coeff:      0.350D-04-0.634D-04-0.136D-03-0.228D-03 0.272D-03 0.243D-02
 Coeff:      0.354D-02-0.106D-01-0.347D-01-0.409D-01 0.147D+00 0.934D+00
 Gap=     0.349 Goal=   None    Shift=    0.000
 RMSDP=1.31D-07 MaxDP=4.72D-06 DE=-8.31D-10 OVMax= 8.09D-06

 Cycle  13  Pass 1  IDiag  1:
 RMSU=  8.79D-08    CP:  8.15D-01  1.78D+00  8.95D-01  9.84D-01  1.39D+00
                    CP:  1.18D+00  1.37D+00  1.37D+00  1.29D+00  1.22D+00
                    CP:  1.30D+00  1.15D+00
 E= -389.150820702995     Delta-E=       -0.000000000112 Rises=F Damp=F
 DIIS: error= 8.39D-08 at cycle  13 NSaved=  13.
 NSaved=13 IEnMin=13 EnMin= -389.150820702995     IErMin=13 ErrMin= 8.39D-08
 ErrMax= 8.39D-08  0.00D+00 EMaxC= 1.00D-01 BMatC= 6.43D-12 BMatP= 3.55D-11
 IDIUse=1 WtCom= 1.00D+00 WtEn= 0.00D+00
 Coeff-Com: -0.340D-04 0.652D-04 0.144D-03 0.174D-03-0.106D-02-0.124D-02
 Coeff-Com:  0.142D-02 0.839D-02 0.378D-02-0.486D-01-0.124D+00 0.135D+00
 Coeff-Com:  0.103D+01
 Coeff:     -0.340D-04 0.652D-04 0.144D-03 0.174D-03-0.106D-02-0.124D-02
 Coeff:      0.142D-02 0.839D-02 0.378D-02-0.486D-01-0.124D+00 0.135D+00
 Coeff:      0.103D+01
 Gap=     0.349 Goal=   None    Shift=    0.000
 RMSDP=6.74D-08 MaxDP=2.92D-06 DE=-1.12D-10 OVMax= 3.54D-06

 Cycle  14  Pass 1  IDiag  1:
 RMSU=  3.96D-08    CP:  8.15D-01  1.78D+00  8.95D-01  9.84D-01  1.39D+00
                    CP:  1.18D+00  1.37D+00  1.37D+00  1.29D+00  1.21D+00
                    CP:  1.34D+00  1.29D+00  1.28D+00
 E= -389.150820703026     Delta-E=       -0.000000000031 Rises=F Damp=F
 DIIS: error= 2.71D-08 at cycle  14 NSaved=  14.
 NSaved=14 IEnMin=14 EnMin= -389.150820703026     IErMin=14 ErrMin= 2.71D-08
 ErrMax= 2.71D-08  0.00D+00 EMaxC= 1.00D-01 BMatC= 6.90D-13 BMatP= 6.43D-12
 IDIUse=1 WtCom= 1.00D+00 WtEn= 0.00D+00
 Coeff-Com: -0.511D-05 0.937D-05 0.247D-04 0.310D-04-0.124D-03-0.271D-03
 Coeff-Com: -0.414D-03 0.180D-02 0.510D-02 0.291D-02-0.375D-01-0.944D-01
 Coeff-Com:  0.159D+00 0.964D+00
 Coeff:     -0.511D-05 0.937D-05 0.247D-04 0.310D-04-0.124D-03-0.271D-03
 Coeff:     -0.414D-03 0.180D-02 0.510D-02 0.291D-02-0.375D-01-0.944D-01
 Coeff:      0.159D+00 0.964D+00
 Gap=     0.349 Goal=   None    Shift=    0.000
 RMSDP=2.20D-08 MaxDP=1.08D-06 DE=-3.10D-11 OVMax= 1.11D-06

 Cycle  15  Pass 1  IDiag  1:
 RMSU=  1.21D-08    CP:  8.15D-01  1.78D+00  8.95D-01  9.84D-01  1.39D+00
                    CP:  1.18D+00  1.37D+00  1.37D+00  1.29D+00  1.21D+00
                    CP:  1.33D+00  1.31D+00  1.39D+00  1.25D+00
 E= -389.150820703024     Delta-E=        0.000000000002 Rises=F Damp=F
 DIIS: error= 1.23D-08 at cycle  15 NSaved=  15.
 NSaved=15 IEnMin=14 EnMin= -389.150820703026     IErMin=15 ErrMin= 1.23D-08
 ErrMax= 1.23D-08  0.00D+00 EMaxC= 1.00D-01 BMatC= 1.35D-13 BMatP= 6.90D-13
 IDIUse=1 WtCom= 1.00D+00 WtEn= 0.00D+00
 Coeff-Com:  0.305D-05-0.608D-05-0.107D-04-0.133D-04 0.101D-03 0.952D-04
 Coeff-Com: -0.344D-03-0.550D-03 0.120D-02 0.804D-02 0.320D-02-0.490D-01
 Coeff-Com: -0.902D-01 0.338D+00 0.789D+00
 Coeff:      0.305D-05-0.608D-05-0.107D-04-0.133D-04 0.101D-03 0.952D-04
 Coeff:     -0.344D-03-0.550D-03 0.120D-02 0.804D-02 0.320D-02-0.490D-01
 Coeff:     -0.902D-01 0.338D+00 0.789D+00
 Gap=     0.349 Goal=   None    Shift=    0.000
 RMSDP=8.27D-09 MaxDP=3.13D-07 DE= 1.93D-12 OVMax= 2.30D-07

 SCF Done:  E(RwB97X) =  -389.150820703     A.U. after   15 cycles
            NFock= 15  Conv=0.83D-08     -V/T= 2.0066
 KE= 3.865958074657D+02 PE=-1.823669237458D+03 EE= 5.872429582938D+02
 Leave Link  502 at Wed Nov 19 11:31:01 2025, MaxMem= 12079595520 cpu:            2516.2 elap:              63.4
 (Enter /local/gaussian-16.A03/g16/l801.exe)
 DoSCS=F DFT=T ScalE2(SS,OS)=  1.000000  1.000000
 Range of M.O.s used for correlation:     1   302
 NBasis=   302 NAE=    34 NBE=    34 NFC=     0 NFV=     0
 NROrb=    302 NOA=    34 NOB=    34 NVA=   268 NVB=   268

 **** Warning!!: The largest alpha MO coefficient is  0.73474249D+02

 Leave Link  801 at Wed Nov 19 11:31:01 2025, MaxMem= 12079595520 cpu:               3.3 elap:               0.1
 (Enter /local/gaussian-16.A03/g16/l1002.exe)
 Minotr:  Closed shell wavefunction.
          Direct CPHF calculation.
          Differentiating once with respect to magnetic field using GIAOs.
          Electric field/nuclear overlap derivatives assumed to be zero.
          Requested convergence is 1.0D-08 RMS, and 1.0D-07 maximum.
          Secondary convergence is 1.0D-12 RMS, and 1.0D-12 maximum.
          NewPWx=T KeepS1=F KeepF1=F KeepIn=T MapXYZ=F SortEE=F KeepMc=T.
         6413 words used for storage of precomputed grid.
 Two-electron integral symmetry not used.
          MDV=   12079595520 using IRadAn=       1.
          Solving linear equations simultaneously, MaxMat=     360.
 FoFCou: FMM=F IPFlag=           0 FMFlag=      100000 FMFlg1=           0
         NFxFlg=           0 DoJE=F BraDBF=F KetDBF=T FulRan=T
         wScrn=  0.000000 ICntrl=      6100 IOpCl=  0 I1Cent=           7 NGrid=          28
         NMat0=    1 NMatS0=      1 NMatT0=    0 NMatD0=    1 NMtDS0=    0 NMtDT0=    0
 Symmetry not used in FoFCou.
 FoFJK:  IHMeth= 1 ICntrl=    6127 DoSepK=T KAlg= 0 I1Cent=           0 FoldK=F
 IRaf=         1 NMat=       1 IRICut=       1 DoRegI=T DoRafI=F ISym2E= 0 IDoP0=0 IntGTp=1.
          There are     3 degrees of freedom in the 1st order CPHF.  IDoFFX=0 NUNeed=     3.
      3 vectors produced by pass  0 Test12= 3.04D-13 3.33D-08 XBig12= 7.07D+01 1.75D+00.
 AX will form     3 AO Fock derivatives at one time.
      3 vectors produced by pass  1 Test12= 3.04D-13 3.33D-08 XBig12= 7.67D-01 2.68D-01.
      3 vectors produced by pass  2 Test12= 3.04D-13 3.33D-08 XBig12= 2.31D-02 5.91D-02.
      3 vectors produced by pass  3 Test12= 3.04D-13 3.33D-08 XBig12= 4.85D-04 5.54D-03.
      3 vectors produced by pass  4 Test12= 3.04D-13 3.33D-08 XBig12= 6.83D-06 4.42D-04.
      3 vectors produced by pass  5 Test12= 3.04D-13 3.33D-08 XBig12= 9.81D-08 5.70D-05.
      3 vectors produced by pass  6 Test12= 3.04D-13 3.33D-08 XBig12= 1.41D-09 5.29D-06.
      3 vectors produced by pass  7 Test12= 3.04D-13 3.33D-08 XBig12= 1.81D-11 7.67D-07.
      3 vectors produced by pass  8 Test12= 3.04D-13 3.33D-08 XBig12= 2.68D-13 9.52D-08.
 InvSVY:  IOpt=1 It=  1 EMax= 5.33D-15
 Solved reduced A of dimension    27 with     3 vectors.
 Calculating GIAO nuclear magnetic shielding tensors.
 SCF GIAO Magnetic shielding tensor (ppm):
      1  C    Isotropic =    50.4246   Anisotropy =   203.1428
   XX=   -13.1194   YX=    49.5540   ZX=   -55.9836
   XY=    54.1113   YY=    -5.5654   ZY=    11.2537
   XZ=   -56.2423   YZ=    10.9279   ZZ=   169.9586
   Eigenvalues:   -71.4485    36.8691   185.8531
      2  C    Isotropic =    88.9199   Anisotropy =   138.6518
   XX=    45.2783   YX=   -45.6118   ZX=   -40.4488
   XY=   -50.5294   YY=    52.6546   ZY=   -16.8598
   XZ=   -42.0518   YZ=   -15.4960   ZZ=   168.8267
   Eigenvalues:    -8.9540    94.3593   181.3545
      3  C    Isotropic =    60.7939   Anisotropy =   148.6141
   XX=    59.0146   YX=    -9.5310   ZX=   -28.6251
   XY=   -15.7712   YY=   -28.7797   ZY=    -7.6389
   XZ=   -26.7246   YZ=    -9.1321   ZZ=   152.1469
   Eigenvalues:   -31.4078    53.9197   159.8700
      4  N    Isotropic =    68.2117   Anisotropy =   257.0408
   XX=   -49.0221   YX=    -1.4044   ZX=   -69.5522
   XY=    49.0115   YY=    42.1565   ZY=    -1.4972
   XZ=   -96.2115   YZ=   -42.5985   ZZ=   211.5008
   Eigenvalues:   -75.5719    40.6348   239.5722
      5  B    Isotropic =    76.4261   Anisotropy =    75.2785
   XX=    63.1242   YX=   -15.8095   ZX=   -12.9928
   XY=   -24.4997   YY=    45.1971   ZY=    -4.4608
   XZ=   -23.3674   YZ=     4.5202   ZZ=   120.9572
   Eigenvalues:    30.9524    71.7143   126.6118
      6  C    Isotropic =    74.9023   Anisotropy =   185.9715
   XX=    67.0550   YX=     7.1525   ZX=   -35.4119
   XY=    16.9598   YY=   -31.8222   ZY=    -0.5109
   XZ=   -35.0250   YZ=     6.4454   ZZ=   189.4743
   Eigenvalues:   -33.5129    59.3366   198.8833
      7  C    Isotropic =   159.1196   Anisotropy =    15.9221
   XX=   163.4622   YX=     0.5577   ZX=    -3.0767
   XY=    -1.0193   YY=   155.6184   ZY=   -13.0840
   XZ=    -2.1021   YZ=   -11.3169   ZZ=   158.2783
   Eigenvalues:   144.4840   163.1406   169.7343
      8  C    Isotropic =    47.5667   Anisotropy =   179.7340
   XX=    79.3647   YX=   -21.7212   ZX=    98.1948
   XY=    -4.4351   YY=    43.4328   ZY=   -20.8750
   XZ=   128.2287   YZ=    24.2170   ZZ=    19.9026
   Eigenvalues:   -68.1961    43.5068   167.3893
      9  C    Isotropic =    58.7675   Anisotropy =   157.0350
   XX=    92.0623   YX=     6.8132   ZX=    93.3078
   XY=   -16.6035   YY=    58.3974   ZY=    -8.4833
   XZ=    93.7820   YZ=   -58.0853   ZZ=    25.8426
   Eigenvalues:   -46.1020    58.9469   163.4575
     10  C    Isotropic =   133.4493   Anisotropy =    35.8263
   XX=   153.8759   YX=     3.8340   ZX=    14.9879
   XY=    -3.7341   YY=   120.4230   ZY=     9.7243
   XZ=     4.5106   YZ=    13.6652   ZZ=   126.0491
   Eigenvalues:   110.3349   132.6796   157.3335
     11  H    Isotropic =    23.3847   Anisotropy =     5.5562
   XX=    23.7882   YX=     1.5266   ZX=     0.7904
   XY=     2.9057   YY=    25.3273   ZY=     0.9709
   XZ=     0.7076   YZ=     0.5599   ZZ=    21.0386
   Eigenvalues:    20.8340    22.2312    27.0889
     12  H    Isotropic =    25.0639   Anisotropy =     3.9594
   XX=    26.3822   YX=    -1.3898   ZX=     1.1212
   XY=    -0.8676   YY=    26.4285   ZY=    -0.1635
   XZ=     1.1539   YZ=    -0.2170   ZZ=    22.3810
   Eigenvalues:    22.0776    25.4107    27.7035
     13  H    Isotropic =    23.8240   Anisotropy =     5.0152
   XX=    26.5293   YX=     1.3082   ZX=     1.4970
   XY=     0.5390   YY=    23.9362   ZY=     0.1153
   XZ=     1.5371   YZ=    -0.1058   ZZ=    21.0066
   Eigenvalues:    20.6015    23.7031    27.1675
     14  H    Isotropic =    24.6481   Anisotropy =     4.6536
   XX=    27.3477   YX=     0.1506   ZX=     1.0662
   XY=     0.8820   YY=    23.1596   ZY=     0.3118
   XZ=     1.2579   YZ=     0.5963   ZZ=    23.4370
   Eigenvalues:    22.7978    23.3960    27.7505
     15  H    Isotropic =    28.1665   Anisotropy =     5.3476
   XX=    27.0211   YX=     0.9928   ZX=     1.2421
   XY=     0.4706   YY=    28.1717   ZY=     1.3219
   XZ=     2.4114   YZ=     2.9746   ZZ=    29.3068
   Eigenvalues:    25.8726    26.8954    31.7315
     16  H    Isotropic =    24.3340   Anisotropy =     2.0697
   XX=    25.1508   YX=    -0.5101   ZX=     0.4944
   XY=     0.9737   YY=    25.2269   ZY=    -0.6428
   XZ=     0.8328   YZ=     1.9971   ZZ=    22.6243
   Eigenvalues:    22.3331    24.9550    25.7138
     17  H    Isotropic =    24.7672   Anisotropy =     1.7266
   XX=    25.3874   YX=     0.6752   ZX=     0.9433
   XY=    -1.0848   YY=    25.8313   ZY=     1.1452
   XZ=    -0.7570   YZ=    -1.3727   ZZ=    23.0830
   Eigenvalues:    23.0751    25.3082    25.9183
     18  H    Isotropic =    26.4598   Anisotropy =     5.4795
   XX=    26.9237   YX=    -1.4182   ZX=     2.4751
   XY=     0.0497   YY=    25.8422   ZY=    -0.8354
   XZ=     2.5246   YZ=    -3.1315   ZZ=    26.6134
   Eigenvalues:    23.6569    25.6097    30.1127
     19  Bq   Isotropic =     7.1564   Anisotropy =    19.3376
   XX=     3.5047   YX=     0.4236   ZX=    -5.0267
   XY=     0.4323   YY=    -0.0407   ZY=    -1.1368
   XZ=    -6.5285   YZ=     0.0108   ZZ=    18.0051
   Eigenvalues:    -0.0934     1.5144    20.0481
     20  Bq   Isotropic =     7.0645   Anisotropy =    19.8732
   XX=     2.4437   YX=     0.3883   ZX=    -6.2128
   XY=     0.0387   YY=     0.0614   ZY=     0.2904
   XZ=    -4.5568   YZ=    -0.5889   ZZ=    18.6883
   Eigenvalues:     0.0265     0.8536    20.3133
     21  Bq   Isotropic =     0.2112   Anisotropy =    10.2021
   XX=     6.2605   YX=    -0.0461   ZX=     1.0287
   XY=     2.1254   YY=    -3.1618   ZY=    -0.8790
   XZ=    -5.8256   YZ=    -0.4859   ZZ=    -2.4650
   Eigenvalues:    -3.6037    -2.7752     7.0126
     22  Bq   Isotropic =     0.8178   Anisotropy =     6.3090
   XX=     4.6327   YX=     0.7508   ZX=    -2.5795
   XY=     1.5962   YY=    -0.1244   ZY=     3.7879
   XZ=     2.9053   YZ=     1.9890   ZZ=    -2.0548
   Eigenvalues:    -4.1706     1.6003     5.0238
     23  Bq   Isotropic =     0.5183   Anisotropy =     9.8785
   XX=     4.6054   YX=    -1.1180   ZX=    -3.7881
   XY=     0.3458   YY=    -3.0571   ZY=     1.5724
   XZ=    -4.4280   YZ=     0.8820   ZZ=     0.0067
   Eigenvalues:    -3.7111    -1.8378     7.1040
     24  Bq   Isotropic =     1.2668   Anisotropy =    10.4676
   XX=     6.0626   YX=    -1.8415   ZX=    -1.8499
   XY=    -2.6769   YY=    -0.5870   ZY=     1.2122
   XZ=    -5.0816   YZ=     2.3246   ZZ=    -1.6752
   Eigenvalues:    -3.3471    -1.0978     8.2452
     25  Bq   Isotropic =    35.7440   Anisotropy =    15.2171
   XX=    45.4710   YX=     0.2147   ZX=     1.3159
   XY=     0.6416   YY=    19.8172   ZY=    -1.1540
   XZ=    -3.5716   YZ=    -6.1424   ZZ=    41.9439
   Eigenvalues:    19.2290    42.1144    45.8888
     26  Bq   Isotropic =    35.5550   Anisotropy =    15.2568
   XX=    45.3630   YX=     0.2105   ZX=     1.4030
   XY=     0.7047   YY=    19.7026   ZY=    -1.2228
   XZ=    -3.5383   YZ=    -6.1183   ZZ=    41.5994
   Eigenvalues:    19.1007    41.8380    45.7262
     27  Bq   Isotropic =    34.6133   Anisotropy =    15.1279
   XX=    44.3217   YX=     0.4212   ZX=     1.3658
   XY=     1.0256   YY=    19.1635   ZY=    -1.9230
   XZ=    -3.4498   YZ=    -5.9631   ZZ=    40.3546
   Eigenvalues:    18.4428    40.6984    44.6985
     28  Bq   Isotropic =    36.2536   Anisotropy =    15.1262
   XX=    45.4228   YX=     0.4049   ZX=     0.7513
   XY=     0.4865   YY=    20.1751   ZY=    -1.1319
   XZ=    -3.7404   YZ=    -6.1380   ZZ=    43.1630
   Eigenvalues:    19.6123    42.8109    46.3378
 End of Minotr F.D. properties file   721 does not exist.
 End of Minotr F.D. properties file   722 does not exist.
 End of Minotr F.D. properties file   788 does not exist.
 Leave Link 1002 at Wed Nov 19 11:31:52 2025, MaxMem= 12079595520 cpu:            2015.8 elap:              51.3
 (Enter /local/gaussian-16.A03/g16/l601.exe)
 Copying SCF densities to generalized density rwf, IOpCl= 0 IROHF=0.

 **********************************************************************

            Population analysis using the SCF density.

 **********************************************************************

 Alpha  occ. eigenvalues --  -14.43057 -10.32059 -10.31624 -10.28564 -10.28313
 Alpha  occ. eigenvalues --  -10.27493 -10.26588 -10.26264 -10.24369  -6.81661
 Alpha  occ. eigenvalues --   -1.09671  -0.99521  -0.92013  -0.85970  -0.79067
 Alpha  occ. eigenvalues --   -0.77369  -0.71842  -0.68455  -0.64768  -0.62948
 Alpha  occ. eigenvalues --   -0.61767  -0.57146  -0.54545  -0.53433  -0.51176
 Alpha  occ. eigenvalues --   -0.49667  -0.47729  -0.45039  -0.44013  -0.42664
 Alpha  occ. eigenvalues --   -0.39343  -0.37094  -0.34716  -0.31083
 Alpha virt. eigenvalues --    0.03835   0.04292   0.04750   0.05056   0.05552
 Alpha virt. eigenvalues --    0.06224   0.06459   0.06885   0.07070   0.08127
 Alpha virt. eigenvalues --    0.08403   0.08891   0.09685   0.10454   0.11997
 Alpha virt. eigenvalues --    0.12459   0.13231   0.13560   0.13835   0.14658
 Alpha virt. eigenvalues --    0.14954   0.15247   0.15413   0.15810   0.16433
 Alpha virt. eigenvalues --    0.16479   0.17076   0.17336   0.18347   0.18477
 Alpha virt. eigenvalues --    0.18686   0.19087   0.19755   0.19917   0.20884
 Alpha virt. eigenvalues --    0.21048   0.21379   0.21764   0.22407   0.22749
 Alpha virt. eigenvalues --    0.23703   0.24192   0.25628   0.26756   0.26833
 Alpha virt. eigenvalues --    0.28501   0.28744   0.29576   0.29814   0.30561
 Alpha virt. eigenvalues --    0.31270   0.31438   0.32063   0.32417   0.33049
 Alpha virt. eigenvalues --    0.33420   0.34202   0.35372   0.35600   0.36581
 Alpha virt. eigenvalues --    0.37177   0.37313   0.38261   0.38451   0.39126
 Alpha virt. eigenvalues --    0.39740   0.40711   0.41529   0.41798   0.42485
 Alpha virt. eigenvalues --    0.43921   0.44151   0.44362   0.45706   0.46610
 Alpha virt. eigenvalues --    0.47866   0.48662   0.49397   0.49618   0.49841
 Alpha virt. eigenvalues --    0.50816   0.52007   0.52113   0.52588   0.53989
 Alpha virt. eigenvalues --    0.54608   0.55266   0.55673   0.56188   0.56828
 Alpha virt. eigenvalues --    0.56988   0.58364   0.58925   0.59080   0.59616
 Alpha virt. eigenvalues --    0.60141   0.61645   0.62080   0.62871   0.63188
 Alpha virt. eigenvalues --    0.64578   0.65078   0.65771   0.66598   0.66738
 Alpha virt. eigenvalues --    0.67705   0.68402   0.69259   0.69728   0.70356
 Alpha virt. eigenvalues --    0.70553   0.71176   0.72087   0.72587   0.73187
 Alpha virt. eigenvalues --    0.73823   0.74449   0.75705   0.76799   0.77329
 Alpha virt. eigenvalues --    0.77750   0.78800   0.79107   0.79647   0.80737
 Alpha virt. eigenvalues --    0.81655   0.82108   0.83449   0.83973   0.84404
 Alpha virt. eigenvalues --    0.85174   0.86428   0.87821   0.88315   0.90199
 Alpha virt. eigenvalues --    0.90856   0.91623   0.92045   0.92551   0.94912
 Alpha virt. eigenvalues --    0.95751   0.96977   0.98367   1.00241   1.01504
 Alpha virt. eigenvalues --    1.02484   1.02827   1.03350   1.05599   1.06603
 Alpha virt. eigenvalues --    1.08203   1.08832   1.10389   1.12566   1.16054
 Alpha virt. eigenvalues --    1.16402   1.17286   1.18611   1.19589   1.19893
 Alpha virt. eigenvalues --    1.24880   1.27490   1.31000   1.32192   1.33550
 Alpha virt. eigenvalues --    1.37736   1.39369   1.40521   1.41914   1.42074
 Alpha virt. eigenvalues --    1.43596   1.44703   1.46215   1.46609   1.47443
 Alpha virt. eigenvalues --    1.49590   1.51099   1.51856   1.52093   1.53079
 Alpha virt. eigenvalues --    1.53987   1.55747   1.57330   1.58211   1.59612
 Alpha virt. eigenvalues --    1.60023   1.61938   1.63245   1.64664   1.66317
 Alpha virt. eigenvalues --    1.67691   1.69048   1.70447   1.71554   1.72843
 Alpha virt. eigenvalues --    1.75152   1.76434   1.77327   1.78678   1.79281
 Alpha virt. eigenvalues --    1.81947   1.84152   1.85486   1.86341   1.88559
 Alpha virt. eigenvalues --    1.90036   1.90745   1.92352   1.94211   1.94662
 Alpha virt. eigenvalues --    1.96944   2.00418   2.01134   2.02579   2.03841
 Alpha virt. eigenvalues --    2.04446   2.05884   2.06209   2.07130   2.09377
 Alpha virt. eigenvalues --    2.13013   2.13666   2.15146   2.16187   2.17936
 Alpha virt. eigenvalues --    2.18772   2.20831   2.21377   2.24620   2.26143
 Alpha virt. eigenvalues --    2.28834   2.31552   2.32664   2.34691   2.37251
 Alpha virt. eigenvalues --    2.39064   2.42408   2.44520   2.45785   2.47483
 Alpha virt. eigenvalues --    2.49037   2.50741   2.54404   2.60907   2.61466
 Alpha virt. eigenvalues --    2.61600   2.65744   2.69467   2.70134   2.72440
 Alpha virt. eigenvalues --    2.74483   2.75320   2.79609   2.84844   2.89023
 Alpha virt. eigenvalues --    2.90553   2.94081   3.00085   3.06231   3.07594
 Alpha virt. eigenvalues --    3.26103   3.28917   3.33281   3.47567   3.67500
 Alpha virt. eigenvalues --    3.96657   4.27973   4.83435
          Condensed to atoms (all electrons):
               1          2          3          4          5          6
     1  C    7.592407  -1.336944   0.329311  -0.248179  -0.310425  -0.644260
     2  C   -1.336944   8.276995  -1.911707   0.119596   0.073781   0.278595
     3  C    0.329311  -1.911707   9.324505  -0.337880  -0.436652  -0.951360
     4  N   -0.248179   0.119596  -0.337880   7.255196   0.291241   0.139381
     5  B   -0.310425   0.073781  -0.436652   0.291241   5.404725   0.804964
     6  C   -0.644260   0.278595  -0.951360   0.139381   0.804964   6.544180
     7  C   -0.009146  -0.112158  -0.128511  -0.136307   0.755188  -0.123378
     8  C    0.133145  -0.122212   0.233094   0.095796  -0.419524  -0.004100
     9  C   -0.145956   0.156455  -0.313761  -0.021856   0.246427   0.075404
    10  C    0.009530  -0.023097  -0.121120   0.074799  -0.723891   0.006183
    11  H   -0.972887   0.339053  -0.049445  -0.046567   0.083341   0.230127
    12  H    0.357456  -1.004203   0.403064  -0.042750  -0.022446  -0.145305
    13  H    0.082875   0.284832  -0.684920  -0.199244   0.100671   0.059269
    14  H    0.513528   0.019737   0.027471  -0.034109  -0.655529  -0.839671
    15  H    0.037129   0.002907   0.018201   0.062383  -0.325402   0.026285
    16  H    0.009249  -0.004838  -0.003573   0.008183   0.062433  -0.010426
    17  H    0.008283  -0.000667   0.057120  -0.003279   0.048821  -0.019694
    18  H    0.014124  -0.011357   0.023441   0.042003   0.104963  -0.017367
    19  Bq   0.000000   0.000000   0.000000   0.000000   0.000000   0.000000
    20  Bq   0.000000   0.000000   0.000000   0.000000   0.000000   0.000000
    21  Bq   0.000000   0.000000   0.000000   0.000000   0.000000   0.000000
    22  Bq   0.000000   0.000000   0.000000   0.000000   0.000000   0.000000
    23  Bq   0.000000   0.000000   0.000000   0.000000   0.000000   0.000000
    24  Bq   0.000000   0.000000   0.000000   0.000000   0.000000   0.000000
    25  Bq   0.000000   0.000000   0.000000   0.000000   0.000000   0.000000
    26  Bq   0.000000   0.000000   0.000000   0.000000   0.000000   0.000000
    27  Bq   0.000000   0.000000   0.000000   0.000000   0.000000   0.000000
    28  Bq   0.000000   0.000000   0.000000   0.000000   0.000000   0.000000
               7          8          9         10         11         12
     1  C   -0.009146   0.133145  -0.145956   0.009530  -0.972887   0.357456
     2  C   -0.112158  -0.122212   0.156455  -0.023097   0.339053  -1.004203
     3  C   -0.128511   0.233094  -0.313761  -0.121120  -0.049445   0.403064
     4  N   -0.136307   0.095796  -0.021856   0.074799  -0.046567  -0.042750
     5  B    0.755188  -0.419524   0.246427  -0.723891   0.083341  -0.022446
     6  C   -0.123378  -0.004100   0.075404   0.006183   0.230127  -0.145305
     7  C    7.060516  -0.511066   0.425656  -1.169658  -0.008196   0.016664
     8  C   -0.511066   7.315199  -1.404261   0.345634  -0.009649  -0.001119
     9  C    0.425656  -1.404261   7.265990  -0.788844   0.006164  -0.001659
    10  C   -1.169658   0.345634  -0.788844   8.321485  -0.010199  -0.000257
    11  H   -0.008196  -0.009649   0.006164  -0.010199   2.530121  -0.148926
    12  H    0.016664  -0.001119  -0.001659  -0.000257  -0.148926   2.412178
    13  H   -0.007668   0.004861  -0.039026  -0.035237  -0.007032  -0.118152
    14  H    0.038582  -0.026436   0.023986  -0.016727  -0.224465  -0.006769
    15  H   -1.030213   0.160470   0.008917   0.247242  -0.004153   0.001382
    16  H   -0.002677  -0.511300   0.262318  -0.051756  -0.000753   0.000168
    17  H   -0.042520   0.237356  -0.511034  -0.015184   0.001240  -0.001615
    18  H    0.371522  -0.095751   0.306959  -1.047176   0.000055  -0.000376
    19  Bq   0.000000   0.000000   0.000000   0.000000   0.000000   0.000000
    20  Bq   0.000000   0.000000   0.000000   0.000000   0.000000   0.000000
    21  Bq   0.000000   0.000000   0.000000   0.000000   0.000000   0.000000
    22  Bq   0.000000   0.000000   0.000000   0.000000   0.000000   0.000000
    23  Bq   0.000000   0.000000   0.000000   0.000000   0.000000   0.000000
    24  Bq   0.000000   0.000000   0.000000   0.000000   0.000000   0.000000
    25  Bq   0.000000   0.000000   0.000000   0.000000   0.000000   0.000000
    26  Bq   0.000000   0.000000   0.000000   0.000000   0.000000   0.000000
    27  Bq   0.000000   0.000000   0.000000   0.000000   0.000000   0.000000
    28  Bq   0.000000   0.000000   0.000000   0.000000   0.000000   0.000000
              13         14         15         16         17         18
     1  C    0.082875   0.513528   0.037129   0.009249   0.008283   0.014124
     2  C    0.284832   0.019737   0.002907  -0.004838  -0.000667  -0.011357
     3  C   -0.684920   0.027471   0.018201  -0.003573   0.057120   0.023441
     4  N   -0.199244  -0.034109   0.062383   0.008183  -0.003279   0.042003
     5  B    0.100671  -0.655529  -0.325402   0.062433   0.048821   0.104963
     6  C    0.059269  -0.839671   0.026285  -0.010426  -0.019694  -0.017367
     7  C   -0.007668   0.038582  -1.030213  -0.002677  -0.042520   0.371522
     8  C    0.004861  -0.026436   0.160470  -0.511300   0.237356  -0.095751
     9  C   -0.039026   0.023986   0.008917   0.262318  -0.511034   0.306959
    10  C   -0.035237  -0.016727   0.247242  -0.051756  -0.015184  -1.047176
    11  H   -0.007032  -0.224465  -0.004153  -0.000753   0.001240   0.000055
    12  H   -0.118152  -0.006769   0.001382   0.000168  -0.001615  -0.000376
    13  H    2.270361  -0.006568   0.004577  -0.000119   0.004157  -0.005114
    14  H   -0.006568   2.980353   0.023789   0.000989  -0.000542  -0.001306
    15  H    0.004577   0.023789   2.550691   0.009029  -0.006854  -0.055567
    16  H   -0.000119   0.000989   0.009029   1.696962   0.020437  -0.006759
    17  H    0.004157  -0.000542  -0.006854   0.020437   1.661864   0.026233
    18  H   -0.005114  -0.001306  -0.055567  -0.006759   0.026233   1.957387
    19  Bq   0.000000   0.000000   0.000000   0.000000   0.000000   0.000000
    20  Bq   0.000000   0.000000   0.000000   0.000000   0.000000   0.000000
    21  Bq   0.000000   0.000000   0.000000   0.000000   0.000000   0.000000
    22  Bq   0.000000   0.000000   0.000000   0.000000   0.000000   0.000000
    23  Bq   0.000000   0.000000   0.000000   0.000000   0.000000   0.000000
    24  Bq   0.000000   0.000000   0.000000   0.000000   0.000000   0.000000
    25  Bq   0.000000   0.000000   0.000000   0.000000   0.000000   0.000000
    26  Bq   0.000000   0.000000   0.000000   0.000000   0.000000   0.000000
    27  Bq   0.000000   0.000000   0.000000   0.000000   0.000000   0.000000
    28  Bq   0.000000   0.000000   0.000000   0.000000   0.000000   0.000000
              19         20         21         22         23         24
     1  C    0.000000   0.000000   0.000000   0.000000   0.000000   0.000000
     2  C    0.000000   0.000000   0.000000   0.000000   0.000000   0.000000
     3  C    0.000000   0.000000   0.000000   0.000000   0.000000   0.000000
     4  N    0.000000   0.000000   0.000000   0.000000   0.000000   0.000000
     5  B    0.000000   0.000000   0.000000   0.000000   0.000000   0.000000
     6  C    0.000000   0.000000   0.000000   0.000000   0.000000   0.000000
     7  C    0.000000   0.000000   0.000000   0.000000   0.000000   0.000000
     8  C    0.000000   0.000000   0.000000   0.000000   0.000000   0.000000
     9  C    0.000000   0.000000   0.000000   0.000000   0.000000   0.000000
    10  C    0.000000   0.000000   0.000000   0.000000   0.000000   0.000000
    11  H    0.000000   0.000000   0.000000   0.000000   0.000000   0.000000
    12  H    0.000000   0.000000   0.000000   0.000000   0.000000   0.000000
    13  H    0.000000   0.000000   0.000000   0.000000   0.000000   0.000000
    14  H    0.000000   0.000000   0.000000   0.000000   0.000000   0.000000
    15  H    0.000000   0.000000   0.000000   0.000000   0.000000   0.000000
    16  H    0.000000   0.000000   0.000000   0.000000   0.000000   0.000000
    17  H    0.000000   0.000000   0.000000   0.000000   0.000000   0.000000
    18  H    0.000000   0.000000   0.000000   0.000000   0.000000   0.000000
    19  Bq   0.000000   0.000000   0.000000   0.000000   0.000000   0.000000
    20  Bq   0.000000   0.000000   0.000000   0.000000   0.000000   0.000000
    21  Bq   0.000000   0.000000   0.000000   0.000000   0.000000   0.000000
    22  Bq   0.000000   0.000000   0.000000   0.000000   0.000000   0.000000
    23  Bq   0.000000   0.000000   0.000000   0.000000   0.000000   0.000000
    24  Bq   0.000000   0.000000   0.000000   0.000000   0.000000   0.000000
    25  Bq   0.000000   0.000000   0.000000   0.000000   0.000000   0.000000
    26  Bq   0.000000   0.000000   0.000000   0.000000   0.000000   0.000000
    27  Bq   0.000000   0.000000   0.000000   0.000000   0.000000   0.000000
    28  Bq   0.000000   0.000000   0.000000   0.000000   0.000000   0.000000
              25         26         27         28
     1  C    0.000000   0.000000   0.000000   0.000000
     2  C    0.000000   0.000000   0.000000   0.000000
     3  C    0.000000   0.000000   0.000000   0.000000
     4  N    0.000000   0.000000   0.000000   0.000000
     5  B    0.000000   0.000000   0.000000   0.000000
     6  C    0.000000   0.000000   0.000000   0.000000
     7  C    0.000000   0.000000   0.000000   0.000000
     8  C    0.000000   0.000000   0.000000   0.000000
     9  C    0.000000   0.000000   0.000000   0.000000
    10  C    0.000000   0.000000   0.000000   0.000000
    11  H    0.000000   0.000000   0.000000   0.000000
    12  H    0.000000   0.000000   0.000000   0.000000
    13  H    0.000000   0.000000   0.000000   0.000000
    14  H    0.000000   0.000000   0.000000   0.000000
    15  H    0.000000   0.000000   0.000000   0.000000
    16  H    0.000000   0.000000   0.000000   0.000000
    17  H    0.000000   0.000000   0.000000   0.000000
    18  H    0.000000   0.000000   0.000000   0.000000
    19  Bq   0.000000   0.000000   0.000000   0.000000
    20  Bq   0.000000   0.000000   0.000000   0.000000
    21  Bq   0.000000   0.000000   0.000000   0.000000
    22  Bq   0.000000   0.000000   0.000000   0.000000
    23  Bq   0.000000   0.000000   0.000000   0.000000
    24  Bq   0.000000   0.000000   0.000000   0.000000
    25  Bq   0.000000   0.000000   0.000000   0.000000
    26  Bq   0.000000   0.000000   0.000000   0.000000
    27  Bq   0.000000   0.000000   0.000000   0.000000
    28  Bq   0.000000   0.000000   0.000000   0.000000
 Mulliken charges:
               1
     1  C    0.580761
     2  C    0.975231
     3  C    0.522721
     4  N   -0.018408
     5  B   -0.082687
     6  C    0.591173
     7  C    0.613370
     8  C    0.579862
     9  C    0.448122
    10  C    0.998271
    11  H   -0.707829
    12  H   -0.697335
    13  H   -0.708524
    14  H   -0.816312
    15  H   -0.730815
    16  H   -0.477567
    17  H   -0.464122
    18  H   -0.605913
    19  Bq   0.000000
    20  Bq   0.000000
    21  Bq   0.000000
    22  Bq   0.000000
    23  Bq   0.000000
    24  Bq   0.000000
    25  Bq   0.000000
    26  Bq   0.000000
    27  Bq   0.000000
    28  Bq   0.000000
 Sum of Mulliken charges =  -0.00000
 Mulliken charges with hydrogens summed into heavy atoms:
               1
     1  C   -0.127068
     2  C    0.277896
     3  C   -0.185802
     4  N   -0.018408
     5  B   -0.082687
     6  C   -0.225139
     7  C   -0.117445
     8  C    0.102296
     9  C   -0.016000
    10  C    0.392359
    19  Bq   0.000000
    20  Bq   0.000000
    21  Bq   0.000000
    22  Bq   0.000000
    23  Bq   0.000000
    24  Bq   0.000000
    25  Bq   0.000000
    26  Bq   0.000000
    27  Bq   0.000000
    28  Bq   0.000000
 Electronic spatial extent (au):  <R**2>=           1264.5599
 Charge=             -0.0000 electrons
 Dipole moment (field-independent basis, Debye):
    X=             -0.4454    Y=              1.1920    Z=             -0.0511  Tot=              1.2735
 Quadrupole moment (field-independent basis, Debye-Ang):
   XX=            -56.4614   YY=            -53.8301   ZZ=            -60.0516
   XY=              0.8033   XZ=              0.8151   YZ=             -0.4239
 Traceless Quadrupole moment (field-independent basis, Debye-Ang):
   XX=              0.3196   YY=              2.9510   ZZ=             -3.2706
   XY=              0.8033   XZ=              0.8151   YZ=             -0.4239
 Octapole moment (field-independent basis, Debye-Ang**2):
  XXX=             12.3125  YYY=              7.9427  ZZZ=              6.6424  XYY=             -0.8320
  XXY=             -2.9755  XXZ=             13.8686  XZZ=             -9.1952  YZZ=              1.5699
  YYZ=              4.6193  XYZ=              0.0759
 Hexadecapole moment (field-independent basis, Debye-Ang**3):
 XXXX=          -1193.8607 YYYY=           -403.5690 ZZZZ=           -165.8668 XXXY=             21.8562
 XXXZ=            -21.9790 YYYX=             10.8674 YYYZ=             -6.4530 ZZZX=            -25.8720
 ZZZY=             -6.4442 XXYY=           -252.4803 XXZZ=           -230.1191 YYZZ=            -99.7245
 XXYZ=             -2.6790 YYXZ=             -9.6713 ZZXY=              3.3206
 N-N= 4.606796509953D+02 E-N=-1.823669239045D+03  KE= 3.865958074657D+02
 Calculating spin-rotation constants.
 Leave Link  601 at Wed Nov 19 11:31:59 2025, MaxMem= 12079595520 cpu:              63.0 elap:               7.3
 (Enter /local/gaussian-16.A03/g16/l9999.exe)
 1\1\GINC-WUX36\SP\RwB97X\Aug-CC-pVDZ\C8H8B1N1\BUEHLERM\19-Nov-2025\0\\
 #p nmr=giao wb97x/aug-cc-pvdz nosymm guess=save\\File Created by py.Ar
 oma 5\\0,1\C,0,2.430479,-0.677828,0.299242\C,0,2.346492,0.749804,0.306
 341\C,0,1.173845,1.387272,-0.019175\N,0,0.127233,0.604831,-0.347663\B,
 0,0.089021,-0.823763,-0.357117\C,0,1.379528,-1.520799,-0.012585\C,0,-1
 .485118,-0.796301,-0.746038\C,0,-2.446456,-0.564547,0.410547\C,0,-2.26
 4793,0.763535,0.469685\C,0,-1.295291,0.771021,-0.700332\H,0,3.401638,-
 1.10649,0.565319\H,0,3.22155,1.342353,0.568443\H,0,1.061378,2.472299,-
 0.034169\H,0,1.558746,-2.596617,0.015738\H,0,-1.870299,-1.27528,-1.652
 755\H,0,-3.031311,-1.259735,1.013895\H,0,-2.605975,1.547108,1.14482\H,
 0,-1.487538,1.407873,-1.571228\Bq,0,0.982776,-0.061651,0.939505\Bq,0,1
 .532757,-0.031843,-0.983157\Bq,0,-0.881221,-0.060625,0.432941\Bq,0,-0.
 400857,-0.061481,-1.508515\Bq,0,-1.114612,-0.076198,0.499298\Bq,0,-2.6
 31217,0.163052,-0.782367\Bq,0,0.008197,0.011235,-0.066587\Bq,0,0.00667
 5,0.007554,-0.071446\Bq,0,0.005494,-0.010678,-0.069709\Bq,0,0.016841,0
 .023596,-0.035946\\Version=ES64L-G16RevA.03\HF=-389.1508207\RMSD=8.272
 e-09\Dipole=-0.1752401,0.4689645,-0.0200865\Quadrupole=0.2376272,2.193
 9695,-2.4315967,0.5972045,0.6060138,-0.3151542\PG=C01 [X(C8H8B1N1)]\\@


 "TIGER, TIGER BURNING BRIGHT
 IN THE FOREST OF THE NIGHT.
 WHAT IMMORTAL HAND OR EYE
 CAN FRAME THY FEARFUL SYMMETRYE?"
                     - WILLIAM BLAKE
 Job cpu time:       0 days  1 hours 18 minutes  2.5 seconds.
 Elapsed time:       0 days  0 hours  2 minutes  4.4 seconds.
 File lengths (MBytes):  RWF=     56 Int=      0 D2E=      0 Chk=      8 Scr=      1
 Normal termination of Gaussian 16 at Wed Nov 19 11:32:00 2025.
