
Running Job 1 of 1 qchem.inp
qchem qchem.inp_1411812.0 /scratch/483097/qchem1411812/ 1
/local/qchem-6.3/exe/qcprog.exe_s qchem.inp_1411812.0 /scratch/483097/qchem1411812/
                  Welcome to Q-Chem
     A Quantum Leap Into The Future Of Chemistry


 Q-Chem 6.3, Q-Chem, Inc., Pleasanton, CA (2025)

 License issued to: MRG Dr. Merle Roehr, University of Wuerzburg

 E. Epifanovsky,  A. T. B. Gilbert,  Xintian Feng,  Joonho Lee,  Yuezhi Mao,  
 N. Mardirossian,  P. Pokhilko,  A. White,  M. Wormit,  M. P. Coons,  
 A. L. Dempwolff,  Zhengting Gan,  D. Hait,  P. R. Horn,  L. D. Jacobson,  
 I. Kaliman,  J. Kussmann,  A. W. Lange,  Ka Un Lao,  D. S. Levine,  Jie Liu,  
 S. C. McKenzie,  A. F. Morrison,  K. D. Nanda,  F. Plasser,  D. R. Rehn,  
 M. L. Vidal,  Zhi-Qiang You,  Ying Zhu,  Huseyin Aksu,  B. Alam,  
 B. Albrecht,  A. Aldossary,  E. Alguire,  J. H. Andersen,  
 J. E. Arias-Martinez,  V. Athavale,  F. Ballesteros,  D. Barton,  K. Begam,  
 A. Behn,  N. Bellonzi,  Y. A. Bernard,  E. J. Berquist,  H. Burton,  
 S. Camps,  A. Carreras,  K. Carter-Fenk,  Mathew Chow,  Romit Chakraborty,  
 Chandrima Chakravarty,  Junhan Chen,  A. D. Chien,  K. D. Closser,  
 V. Cofer-Shabica,  L. Cunha,  S. Dasgupta,  Jia Deng,  Joseph Dickinson,  
 M. de Wergifosse,  M. Diedenhofen,  L. B. Dittmer,  Hainam Do,  Wenjie Dou,  
 S. Ehlert,  Po-Tung Fang,  S. Fatehi,  Qingguo Feng,  Jonathan Fetherolf,  
 T. Friedhoff,  Thomas Froitzheim,  Sarai Folkestad,  B. Ganoe,  J. Gayvert,  
 Qinghui Ge,  G. Gidofalvi,  M. Gimferrer,  G. Giudetti,  M. Goldey,  
 Montgomery Gray,  J. Gomes,  C. Gonzalez-Espinoza,  S. Gulania,  A. Gunina,  
 J. A. Gyamfi,  M. W. D. Hanson-Heine,  P. H. P. Harbach,  A. W. Hauser,  
 M. F. Herbst,  M. Hernandez Vera,  M. Hodecker,  Z. C. Holden,  S. Houck,  
 Xunkun Huang,  Kerwin Hui,  B. C. Huynh,  K. Ikeda,  M. Ivanov,  
 Nayanthara K. Jayadev,  Hyunjun Ji,  Zuxin Jin,  Hanjie Jiang,  
 Subrata Jana,  B. Kaduk,  S. Kaehler,  R. Kang,  Richard Kang,  
 K. Khistyaev,  Jaehoon Kim,  Yongbin Kim,  P. Klunzinger,  Z. Koczor-Benda,  
 Joong Hoon Koh,  D. Kosenkov,  Saikiran Kotaru,  L. Koulias,  T. Kowalczyk,  
 C. M. Krauter,  K. Kue,  A. Kunitsa,  T. Kus,  A. Landau,  C. W. Lander,  
 K. V. Lawler,  D. Lefrancois,  S. Lehtola,  Rain Li,  Shaozhi Li,  
 Tao E. Li,  Yi-Pei Li,  Jiashu Liang,  M. Liebenthal,  Hung-Hsuan Lin,  
 You-Sheng Lin,  Fenglai Liu,  Kuan-Yu Liu,  Xiao Liu,  M. Loipersberger,  
 A. Luenser,  C. Malbon,  Aniket Mandal,  Manisha,  A. Manjanath,  
 P. Manohar,  E. Mansoor,  S. F. Manzer,  Shan-Ping Mao,  A. V. Marenich,  
 T. Markovich,  S. Mason,  F. Matz,  S. A. Maurer,  Samuel May,  
 Alexandra McIsaac,  P. F. McLaughlin,  M. F. S. J. Menger,  J.-M. Mewes,  
 S. A. Mewes,  R. E. Moorby,  P. Morgante,  Mohammad Mostafanejad,  
 Madhubani Mukherjee,  J. W. Mullinax,  Quyen Nguyen,  Avik Kumar Ojha,  
 K. J. Oosterbaan,  Eno Paenurk,  Xiaoliang Pan,  G. Paran,  V. Parravicini,  
 R. L. Patterson,  Alexander C. Paul,  Suranjan K. Paul,  F. Pavosevic,  
 Zheng Pei,  P. Pokhilko,  S. Prager,  E. I. Proynov,  E. Ramos,  B. Rana,  
 A. E. Rask,  A. Rettig,  R. M. Richard,  F. Rob,  E. Rossomme,  S. Roy,  
 T. Scheele,  M. Scheurer,  M. Schneider,  P. E. Schneider,  Tim K. Schramm,  
 N. Sergueev,  S. M. Sharada,  Hengyuan Shen,  W. Skomorowski,  D. W. Small,  
 C. J. Stein,  Alistair J. Sterling,  Yingli Su,  Yu-Chuan Su,  
 E. J. Sundstrom,  J. Talbot,  J. A. Tan,  Zhen Tao,  Hung-Hsuan Teh,  
 J. Thirman,  C. Titeca,  N. Tkachenko,  Hung-Yi Tsai,  T. Tsuchimochi,  
 N. M. Tubman,  C. Utku,  S. P. Veccham,  O. Vydrov,  Z. Wang,  Rahel Weiss,  
 J. Wenzel,  Jonathan Wong,  J. Witte,  H. Wu,  Yanze Wu,  A. Yamada,  
 Chou-Hsun Yang,  Kun Yao,  S. Yeganeh,  S. R. Yost,  Qi Yu,  A. Zech,  
 F. Zeller,  Chongxiao Zhao,  T. Zhao,  Igor Ying Zhang,  Xing Zhang,  
 Yu Zhang,  D. Zuev,  A. Aspuru-Guzik,  A. T. Bell,  N. A. Besley,  
 K. B. Bravaya,  B. R. Brooks,  D. Casanova,  Jeng-Da Chai,  Hsing-Ta Chen,  
 S. Coriani,  C. J. Cramer,  A. E. DePrince, III,  R. A. DiStasio Jr.,  
 A. Dreuw,  B. D. Dunietz,  T. R. Furlani,  W. A. Goddard III,  S. Grimme,  
 S. Hammes-Schiffer,  T. Head-Gordon,  W. J. Hehre,  Chao-Ping Hsu,  
 T.-C. Jagau,  Yousung Jung,  A. Klamt,  Jing Kong,  D. S. Lambrecht,  
 Xiangyuan Li,  WanZhen Liang,  N. J. Mayhall,  C. W. McCurdy,  J. B. Neaton,  
 T. Neudecker,  C. Ochsenfeld,  J. A. Parkhill,  R. Peverati,  
 V. A. Rassolov,  Haisheng Ren,  Yihan Shao,  L. V. Slipchenko,  
 R. P. Steele,  J. E. Subotnik,  A. J. W. Thom,  A. Tkatchenko,  
 D. G. Truhlar,  T. Van Voorhis,  Fan Wang,  T. A. Wesolowski,  K. B. Whaley,  
 H. L. Woodcock III,  P. M. Zimmerman,  S. Faraji,  P. M. W. Gill,  
 M. Head-Gordon,  J. M. Herbert,  A. I. Krylov

 Contributors to earlier versions of Q-Chem not listed above: 
 R. D. Adamson,  B. Austin,  R. Baer,  J. Baker,  G. J. O. Beran,  
 K. Brandhorst,  S. T. Brown,  E. F. C. Byrd,  Arup K. Chakraborty,  
 G. K. L. Chan,  Chun-Min Chang,  Yunqing Chen,  C.-L. Cheng,  
 Siu Hung Chien,  D. M. Chipman,  D. L. Crittenden,  H. Dachsel,  
 R. J. Doerksen,  A. D. Dutoi,  R. G. Edgar,  J. Fosso-Tande,  
 L. Fusti-Molnar,  D. Ghosh,  A. Ghysels,  A. Golubeva-Zadorozhnaya,  
 J. Gonthier,  M. S. Gordon,  S. R. Gwaltney,  G. Hawkins,  J. E. Herr,  
 A. Heyden,  S. Hirata,  E. G. Hohenstein,  G. Kedziora,  F. J. Keil,  
 C. Kelley,  Jihan Kim,  R. A. King,  R. Z. Khaliullin,  P. P. Korambath,  
 W. Kurlancheek,  A. Laurent,  A. M. Lee,  M. S. Lee,  S. V. Levchenko,  
 Ching Yeh Lin,  D. Liotard,  E. Livshits,  R. C. Lochan,  I. Lotan,  
 L. A. Martinez-Martinez,  P. E. Maslen,  N. Nair,  D. P. O'Neill,  
 D. Neuhauser,  E. Neuscamman,  C. M. Oana,  R. Olivares-Amaya,  R. Olson,  
 T. M. Perrine,  B. Peters,  P. A. Pieniazek,  A. Prociuk,  Y. M. Rhee,  
 J. Ritchie,  M. A. Rohrdanz,  E. Rosta,  N. J. Russ,  H. F. Schaefer III,  
 M. W. Schmidt,  N. E. Schultz,  S. Sharma,  N. Shenvi,  C. D. Sherrill,  
 A. C. Simmonett,  A. Sodt,  T. Stein,  D. Stuck,  K. S. Thanthiriwatte,  
 V. Vanovschi,  L. Vogt,  Tao Wang,  A. Warshel,  M. A. Watson,  
 C. F. Williams,  Q. Wu,  X. Xu,  Jun Yang,  W. Zhang,  Yan Zhao

   Please cite Q-Chem as follows:
  "Software for the frontiers of quantum chemistry:
   An overview of developments in the Q-Chem 5 package"
   J. Chem. Phys. 155, 084801 (2021)
   https://doi.org/10.1063/5.0055522 (open access)

 Q-Chem 6.3.1 for Intel X86 EM64T Linux

 Parts of Q-Chem use Armadillo 12.8.2 (Cortisol Injector).
 http://arma.sourceforge.net/

 Q-Chem begins on Wed Jun 17 18:25:55 2026  

 Host: 
0

 Scratch files written to /scratch/483097/qchem1411812//
 Executable: /local/qchem-6.3/exe/qcprog.exe_s
 Number of threads = 8
 Sep2225 |scratch|qcdevops|jenkins|workspace|build_RNUM -1
 Processing $rem in /local/qchem-6.3/config/preferences:
 Processing $rem in /home/buehlerm/.qchemrc:

 Checking the input file for inconsistencies... 	...done.

--------------------------------------------------------------
User input:
--------------------------------------------------------------
$molecule
0 1
C	2.4954784510	-0.6914690598	0.0000000000
C	2.3947794534	0.7383122134	0.0000000000
C	1.1884816124	1.3620201067	0.0000000000
N	-0.0000627691	0.6564035436	0.0000000000
B	0.0000589320	-0.8098268521	0.0000000000
C	1.3740443398	-1.4711784991	0.0000000000
C	-1.3738173852	-1.4714059656	0.0000000000
C	-2.4953803966	-0.6918815099	0.0000000000
C	-2.3949177718	0.7379158168	0.0000000000
C	-1.1887232563	1.3618231873	0.0000000000
H	3.4952444711	-1.1321415120	0.0000000000
H	3.2942672422	1.3515414900	0.0000000000
H	1.1034647757	2.4486041769	0.0000000000
H	1.4958934750	-2.5565498947	0.0000000000
H	-1.4954873324	-2.5567976389	0.0000000000
H	-3.4950736794	-1.1327190288	0.0000000000
H	-3.2945056026	1.3509981293	0.0000000000
H	-1.1038865593	2.4484212971	0.0000000000
$end

$rem
METHOD     wB97xD
BASIS      aug-cc-pvdz
NBO        1        ! NBO5 Aufruf
MAKE_CUBE_FILES TRUE
PLOTS TRUE
$end

$nbo
PLOT
$end

$plots
grid_range (-6,6) (-6,6) (-4,4)
grid_spacing 0.12
nbo_state 0
natural_bond_orbital 300
$end


--------------------------------------------------------------
 Atom   8: ( -2.4954294121,  0.0000000000,  0.6918496579)
         ->( -2.4954294516, -0.0000000000,  0.6918498957)
 Atom   9: ( -2.3948485594, -0.0000000000, -0.7379393565)
         ->( -2.3948486812,  0.0000000000, -0.7379396990)
 Atom  10: ( -1.1886024582, -0.0000000000, -1.3617469860)
         ->( -1.1886024182,  0.0000000000, -1.3617473373)
 Atom   4: ( -0.0000003056, -0.0000000000, -0.6562290560)
         ->(  0.0000000000,  0.0000000000, -0.6562290560)
 Atom   5: (  0.0000001548,  0.0000000000,  0.8100013445)
         ->(  0.0000000000,  0.0000000000,  0.8100013445)
 Atom   7: ( -1.3739308626,  0.0000000000,  1.4714668514)
         ->( -1.3739308713, -0.0000000000,  1.4714666022)
 Atom  16: ( -3.4951591436,  0.0000000000,  1.1326045118)
         ->( -3.4951590294, -0.0000000000,  1.1326050158)
 Atom  17: ( -3.2943856920, -0.0000000000, -1.3510960526)
         ->( -3.2943871739,  0.0000000000, -1.3510945958)
 Atom  18: ( -1.1036759120, -0.0000000000, -2.4483380768)
         ->( -1.1036754301,  0.0000000000, -2.4483384335)
 Atom  15: ( -1.4956905591,  0.0000000000,  2.5568484601)
         ->( -1.4956902580, -0.0000000000,  2.5568480695)
 ----------------------------------------------------------------
             Standard Nuclear Orientation (Angstroms)
    I     Atom           X                Y                Z
 ----------------------------------------------------------------
    1      C       2.4954294521     0.0000000000     0.6918498959
    2      C       2.3948486817    -0.0000000000    -0.7379396991
    3      C       1.1886024184    -0.0000000000    -1.3617473376
    4      N       0.0000000000     0.0000000000    -0.6562290561
    5      B       0.0000000000     0.0000000000     0.8100013446
    6      C       1.3739308715     0.0000000000     1.4714666025
    7      C      -1.3739308715    -0.0000000000     1.4714666025
    8      C      -2.4954294521    -0.0000000000     0.6918498959
    9      C      -2.3948486817     0.0000000000    -0.7379396991
   10      C      -1.1886024184     0.0000000000    -1.3617473376
   11      H       3.4951590301     0.0000000000     1.1326050160
   12      H       3.2943871746    -0.0000000000    -1.3510945961
   13      H       1.1036754303    -0.0000000000    -2.4483384340
   14      H       1.4956902583     0.0000000000     2.5568480700
   15      H      -1.4956902583    -0.0000000000     2.5568480700
   16      H      -3.4951590301    -0.0000000000     1.1326050160
   17      H      -3.2943871746     0.0000000000    -1.3510945961
   18      H      -1.1036754303     0.0000000000    -2.4483384340
 ----------------------------------------------------------------
 Molecular Point Group                 C2v   NOp =  4
 Largest Abelian Subgroup              C2v   NOp =  4
 Nuclear Repulsion Energy =         453.39983535 hartrees
 There are       34 alpha and       34 beta electrons
 Requested basis set is aug-cc-pVDZ
 There are 130 shells and 302 basis functions

 Total QAlloc Memory Limit   7000 MB
 Mega-Array Size       188 MB
 MEM_STATIC part       192 MB

 A cutoff of  1.0D-09 yielded   8123 shell pairs
 There are     44159 function pairs (     50313 Cartesian)
 Smallest overlap matrix eigenvalue = 2.05E-06

 Q-Chem warning in module stvman/mkSTV.C, line 305:

 Overlap eigenvalue is smaller than square root of threshold
 Use THRESH >= 12 to get rid of this warning


 Scale SEOQF with 1.000000e-01/1.000000e-01/1.000000e-01

 Standard Electronic Orientation quadrupole field applied
 Nucleus-field energy     =    -0.0000000021 hartrees
 Guess from superposition of atomic densities
 Warning:  Energy on first SCF cycle will be non-variational
 SAD guess density has 68.000000 electrons

 -----------------------------------------------------------------------
  General SCF calculation program by
  Eric Jon Sundstrom, Paul Horn, Yuezhi Mao, Dmitri Zuev, Alec White,
  David Stuck, Shaama M.S., Shane Yost, Joonho Lee, David Small,
  Daniel Levine, Susi Lehtola, Hugh Burton, Evgeny Epifanovsky,
  Bang C. Huynh
 -----------------------------------------------------------------------
 Exchange:     0.2220 Hartree-Fock + 1.0000 wB97X-D + LR-HF
 Correlation:  1.0000 wB97X-D
 Using SG-2 standard quadrature grid
 Dispersion:   Grimme D
 using 8 threads for integral computing
 -------------------------------------------------------
 OpenMP Integral computing Module                
 Release: version 1.0, May 2013, Q-Chem Inc. Pittsburgh 
 -------------------------------------------------------
 A restricted SCF calculation will be
 performed using DIIS
 SCF converges when DIIS error is below 1.0e-05
 User-specified cutoff of 10e-9
 used for neglect of 2-electron integrals.
 A cutoff of 10e-9
 used for neglect of overlap integrals.
 Incremental Fock algorithm is on at the start.
 ---------------------------------------
  Cycle       Energy         DIIS error
 ---------------------------------------
    1    -392.3894450865      3.59e-02  
    2    -389.0962481875      2.86e-03  
    3    -389.1303327394      2.55e-03  
    4    -389.2072025791      4.35e-04  
    5    -389.2093815750      2.07e-04  
    6    -389.2098965133      5.19e-05  
    7    -389.2099274628      1.76e-05  
    8    -389.2099332069      6.10e-06  Convergence criterion met
 ---------------------------------------
 SCF time:   CPU 503.38s  wall 64.00s 
 SCF   energy =  -389.20993321
 Total energy =  -389.20993321
 Integrated density by DFT XC:
   Number of electrons = 68
   Numerical integral  =    67.999804497520
   Relative error      =     0.0002875036 %
 
 --------------------------------------------------------------
             Orbital Energies (a.u.) and Symmetries
 --------------------------------------------------------------
 
 Alpha MOs, Restricted
 -- Occupied --                  
-14.503 -10.344 -10.344 -10.308 -10.308 -10.304 -10.304 -10.273
  1 A1    1 B1    2 A1    3 A1    2 B1    4 A1    3 B1    4 B1                 
-10.273  -6.826  -1.075  -0.931  -0.895  -0.829  -0.817  -0.727
  5 A1    6 A1    7 A1    5 B1    8 A1    6 B1    9 A1    7 B1                 
 -0.705  -0.687  -0.630  -0.595  -0.576  -0.534  -0.527  -0.527
 10 A1   11 A1    8 B1    9 B1   12 A1   13 A1   10 B1   14 A1                 
 -0.515  -0.493  -0.481  -0.452  -0.421  -0.407  -0.395  -0.380
  1 B2   11 B1   15 A1   12 B1    1 A2   16 A1   13 B1    2 B2                 
 -0.308  -0.300
  3 B2    2 A2                                                                 
 -- Virtual --                   
  0.020   0.030   0.033   0.041   0.043   0.055   0.056   0.067
  3 A2    4 B2   17 A1   14 B1   18 A1   15 B1   19 A1    5 B2                 
  0.072   0.079   0.079   0.084   0.094   0.097   0.105   0.116
 20 A1   16 B1   21 A1    6 B2   17 B1   18 B1   22 A1    7 B2                 
  0.126   0.128   0.136   0.138   0.144   0.145   0.151   0.157
  4 A2   23 A1   19 B1   24 A1    5 A2   25 A1   20 B1   26 A1                 
  0.159   0.161   0.165   0.174   0.175   0.177   0.183   0.185
 27 A1    8 B2   21 B1    6 A2    9 B2   28 A1   22 B1   29 A1                 
  0.189   0.196   0.199   0.202   0.203   0.207   0.225   0.231
 10 B2   23 B1    7 A2   24 B1   30 A1   25 B1   31 A1   11 B2                 
  0.239   0.250   0.253   0.262   0.275   0.286   0.293   0.297
  8 A2   32 A1   26 B1   27 B1   33 A1   12 B2   34 A1   35 A1                 
  0.300   0.309   0.313   0.315   0.317   0.322   0.327   0.337
 28 B1   36 A1   37 A1    9 A2   29 B1   30 B1   38 A1   31 B1                 
  0.337   0.344   0.345   0.346   0.348   0.361   0.379   0.379
 39 A1   32 B1   13 B2   40 A1   33 B1   41 A1   42 A1   34 B1                 
  0.383   0.386   0.394   0.407   0.415   0.415   0.423   0.426
 14 B2   35 B1   43 A1   36 B1   37 B1   15 B2   44 A1   10 A2                 
  0.428   0.433   0.444   0.455   0.484   0.486   0.492   0.494
 38 B1   11 A2   16 B2   45 A1   12 A2   46 A1   47 A1   17 B2                 
  0.500   0.504   0.518   0.519   0.529   0.530   0.544   0.546
 39 B1   18 B2   13 A2   48 A1   40 B1   49 A1   14 A2   19 B2                 
  0.556   0.559   0.565   0.575   0.576   0.583   0.584   0.601
 50 A1   41 B1   51 A1   42 B1   52 A1   15 A2   43 B1   20 B2                 
  0.612   0.629   0.636   0.639   0.649   0.650   0.655   0.663
 44 B1   53 A1   54 A1   45 B1   21 B2   55 A1   46 B1   56 A1                 
  0.667   0.673   0.680   0.681   0.686   0.690   0.692   0.715
 47 B1   48 B1   49 B1   16 A2   57 A1   22 B2   58 A1   50 B1                 
  0.722   0.726   0.730   0.731   0.738   0.744   0.745   0.755
 23 B2   59 A1   51 B1   60 A1   61 A1   52 B1   17 A2   62 A1                 
  0.759   0.767   0.771   0.774   0.794   0.799   0.813   0.813
 53 B1   54 B1   24 B2   63 A1   64 A1   18 A2   19 A2   55 B1                 
  0.820   0.842   0.851   0.854   0.858   0.861   0.866   0.869
 25 B2   65 A1   20 A2   66 A1   26 B2   56 B1   67 A1   21 A2                 
  0.872   0.895   0.903   0.933   0.947   0.961   0.961   0.975
 57 B1   27 B2   58 B1   68 A1   59 B1   22 A2   28 B2   69 A1                 
  1.012   1.013   1.015   1.020   1.028   1.045   1.055   1.062
 60 B1   29 B2   70 A1   23 A2   61 B1   24 A2   30 B2   62 B1                 
  1.067   1.088   1.140   1.143   1.147   1.156   1.189   1.204
 71 A1   72 A1   63 B1   25 A2   73 A1   31 B2   64 B1   26 A2                 
  1.242   1.338   1.339   1.359   1.361   1.373   1.398   1.401
 74 A1   75 A1   65 B1   32 B2   27 A2   66 B1   33 B2   76 A1                 
  1.440   1.444   1.446   1.453   1.467   1.467   1.481   1.494
 77 A1   67 B1   78 A1   28 A2   34 B2   68 B1   79 A1   69 B1                 
  1.495   1.499   1.518   1.520   1.526   1.546   1.562   1.570
 80 A1   29 A2   70 B1   81 A1   71 B1   35 B2   36 B2   72 B1                 
  1.582   1.582   1.592   1.604   1.609   1.637   1.644   1.651
 82 A1   73 B1   83 A1   30 A2   84 A1   37 B2   31 A2   85 A1                 
  1.652   1.677   1.721   1.722   1.748   1.750   1.758   1.759
 74 B1   75 B1   76 B1   38 B2   86 A1   39 B2   77 B1   32 A2                 
  1.764   1.790   1.804   1.820   1.850   1.884   1.884   1.893
 33 A2   87 A1   78 B1   88 A1   79 B1   80 B1   34 A2   89 A1                 
  1.916   1.932   1.932   1.949   1.950   1.960   1.962   1.980
 40 B2   81 B1   90 A1   82 B1   35 A2   41 B2   91 A1   92 A1                 
  1.989   2.018   2.037   2.065   2.093   2.094   2.107   2.139
 42 B2   83 B1   36 A2   93 A1   84 B1   94 A1   95 A1   43 B2                 
  2.147   2.161   2.165   2.191   2.191   2.212   2.229   2.255
 85 B1   96 A1   37 A2   97 A1   86 B1   98 A1   87 B1   44 B2                 
  2.271   2.279   2.344   2.367   2.384   2.394   2.409   2.417
 38 A2   88 B1   45 B2   99 A1   89 B1   39 A2   90 B1  100 A1                 
  2.530   2.538   2.586   2.590   2.621   2.628   2.664   2.686
101 A1   46 B2   91 B1  102 A1  103 A1   92 B1  104 A1   40 A2                 
  2.690   2.735   2.749   2.783   2.820   2.839   2.885   2.912
 93 B1   94 B1   95 B1  105 A1  106 A1   96 B1  107 A1   97 B1                 
  2.914   3.036   3.057   3.100   3.115   3.261   3.345   3.407
108 A1   98 B1  109 A1   99 B1  110 A1  111 A1  112 A1  100 B1                 
  3.487   3.975   4.334   4.387
101 B1  113 A1  102 B1  114 A1                                                 
 
 Beta MOs, Restricted
 -- Occupied --                  
-14.503 -10.344 -10.344 -10.308 -10.308 -10.304 -10.304 -10.273
  1 A1    1 B1    2 A1    3 A1    2 B1    4 A1    3 B1    4 B1                 
-10.273  -6.826  -1.075  -0.931  -0.895  -0.829  -0.817  -0.727
  5 A1    6 A1    7 A1    5 B1    8 A1    6 B1    9 A1    7 B1                 
 -0.705  -0.687  -0.630  -0.595  -0.576  -0.534  -0.527  -0.527
 10 A1   11 A1    8 B1    9 B1   12 A1   13 A1   10 B1   14 A1                 
 -0.515  -0.493  -0.481  -0.452  -0.421  -0.407  -0.395  -0.380
  1 B2   11 B1   15 A1   12 B1    1 A2   16 A1   13 B1    2 B2                 
 -0.308  -0.300
  3 B2    2 A2                                                                 
 -- Virtual --                   
  0.020   0.030   0.033   0.041   0.043   0.055   0.056   0.067
  3 A2    4 B2   17 A1   14 B1   18 A1   15 B1   19 A1    5 B2                 
  0.072   0.079   0.079   0.084   0.094   0.097   0.105   0.116
 20 A1   16 B1   21 A1    6 B2   17 B1   18 B1   22 A1    7 B2                 
  0.126   0.128   0.136   0.138   0.144   0.145   0.151   0.157
  4 A2   23 A1   19 B1   24 A1    5 A2   25 A1   20 B1   26 A1                 
  0.159   0.161   0.165   0.174   0.175   0.177   0.183   0.185
 27 A1    8 B2   21 B1    6 A2    9 B2   28 A1   22 B1   29 A1                 
  0.189   0.196   0.199   0.202   0.203   0.207   0.225   0.231
 10 B2   23 B1    7 A2   24 B1   30 A1   25 B1   31 A1   11 B2                 
  0.239   0.250   0.253   0.262   0.275   0.286   0.293   0.297
  8 A2   32 A1   26 B1   27 B1   33 A1   12 B2   34 A1   35 A1                 
  0.300   0.309   0.313   0.315   0.317   0.322   0.327   0.337
 28 B1   36 A1   37 A1    9 A2   29 B1   30 B1   38 A1   31 B1                 
  0.337   0.344   0.345   0.346   0.348   0.361   0.379   0.379
 39 A1   32 B1   13 B2   40 A1   33 B1   41 A1   42 A1   34 B1                 
  0.383   0.386   0.394   0.407   0.415   0.415   0.423   0.426
 14 B2   35 B1   43 A1   36 B1   37 B1   15 B2   44 A1   10 A2                 
  0.428   0.433   0.444   0.455   0.484   0.486   0.492   0.494
 38 B1   11 A2   16 B2   45 A1   12 A2   46 A1   47 A1   17 B2                 
  0.500   0.504   0.518   0.519   0.529   0.530   0.544   0.546
 39 B1   18 B2   13 A2   48 A1   40 B1   49 A1   14 A2   19 B2                 
  0.556   0.559   0.565   0.575   0.576   0.583   0.584   0.601
 50 A1   41 B1   51 A1   42 B1   52 A1   15 A2   43 B1   20 B2                 
  0.612   0.629   0.636   0.639   0.649   0.650   0.655   0.663
 44 B1   53 A1   54 A1   45 B1   21 B2   55 A1   46 B1   56 A1                 
  0.667   0.673   0.680   0.681   0.686   0.690   0.692   0.715
 47 B1   48 B1   49 B1   16 A2   57 A1   22 B2   58 A1   50 B1                 
  0.722   0.726   0.730   0.731   0.738   0.744   0.745   0.755
 23 B2   59 A1   51 B1   60 A1   61 A1   52 B1   17 A2   62 A1                 
  0.759   0.767   0.771   0.774   0.794   0.799   0.813   0.813
 53 B1   54 B1   24 B2   63 A1   64 A1   18 A2   19 A2   55 B1                 
  0.820   0.842   0.851   0.854   0.858   0.861   0.866   0.869
 25 B2   65 A1   20 A2   66 A1   26 B2   56 B1   67 A1   21 A2                 
  0.872   0.895   0.903   0.933   0.947   0.961   0.961   0.975
 57 B1   27 B2   58 B1   68 A1   59 B1   22 A2   28 B2   69 A1                 
  1.012   1.013   1.015   1.020   1.028   1.045   1.055   1.062
 60 B1   29 B2   70 A1   23 A2   61 B1   24 A2   30 B2   62 B1                 
  1.067   1.088   1.140   1.143   1.147   1.156   1.189   1.204
 71 A1   72 A1   63 B1   25 A2   73 A1   31 B2   64 B1   26 A2                 
  1.242   1.338   1.339   1.359   1.361   1.373   1.398   1.401
 74 A1   75 A1   65 B1   32 B2   27 A2   66 B1   33 B2   76 A1                 
  1.440   1.444   1.446   1.453   1.467   1.467   1.481   1.494
 77 A1   67 B1   78 A1   28 A2   34 B2   68 B1   79 A1   69 B1                 
  1.495   1.499   1.518   1.520   1.526   1.546   1.562   1.570
 80 A1   29 A2   70 B1   81 A1   71 B1   35 B2   36 B2   72 B1                 
  1.582   1.582   1.592   1.604   1.609   1.637   1.644   1.651
 82 A1   73 B1   83 A1   30 A2   84 A1   37 B2   31 A2   85 A1                 
  1.652   1.677   1.721   1.722   1.748   1.750   1.758   1.759
 74 B1   75 B1   76 B1   38 B2   86 A1   39 B2   77 B1   32 A2                 
  1.764   1.790   1.804   1.820   1.850   1.884   1.884   1.893
 33 A2   87 A1   78 B1   88 A1   79 B1   80 B1   34 A2   89 A1                 
  1.916   1.932   1.932   1.949   1.950   1.960   1.962   1.980
 40 B2   81 B1   90 A1   82 B1   35 A2   41 B2   91 A1   92 A1                 
  1.989   2.018   2.037   2.065   2.093   2.094   2.107   2.139
 42 B2   83 B1   36 A2   93 A1   84 B1   94 A1   95 A1   43 B2                 
  2.147   2.161   2.165   2.191   2.191   2.212   2.229   2.255
 85 B1   96 A1   37 A2   97 A1   86 B1   98 A1   87 B1   44 B2                 
  2.271   2.279   2.344   2.367   2.384   2.394   2.409   2.417
 38 A2   88 B1   45 B2   99 A1   89 B1   39 A2   90 B1  100 A1                 
  2.530   2.538   2.586   2.590   2.621   2.628   2.664   2.686
101 A1   46 B2   91 B1  102 A1  103 A1   92 B1  104 A1   40 A2                 
  2.690   2.735   2.749   2.783   2.820   2.839   2.885   2.912
 93 B1   94 B1   95 B1  105 A1  106 A1   96 B1  107 A1   97 B1                 
  2.914   3.036   3.057   3.100   3.115   3.261   3.345   3.407
108 A1   98 B1  109 A1   99 B1  110 A1  111 A1  112 A1  100 B1                 
  3.487   3.975   4.334   4.387
101 B1  113 A1  102 B1  114 A1                                                 
 --------------------------------------------------------------
 
          Ground-State Mulliken Net Atomic Charges

     Atom                 Charge (a.u.)
  ----------------------------------------
      1 C                     0.329539
      2 C                     0.985146
      3 C                     0.360109
      4 N                     0.158397
      5 B                     0.083656
      6 C                     1.051328
      7 C                     1.051328
      8 C                     0.329539
      9 C                     0.985150
     10 C                     0.360106
     11 H                    -0.628993
     12 H                    -0.603116
     13 H                    -0.841245
     14 H                    -0.773794
     15 H                    -0.773794
     16 H                    -0.628993
     17 H                    -0.603117
     18 H                    -0.841246
  ----------------------------------------
  Sum of atomic charges =     0.000000

 -----------------------------------------------------------------
                    Cartesian Multipole Moments
 -----------------------------------------------------------------
    Charge (ESU x 10^10)
                -0.0000
    Dipole Moment (Debye)
         X      -0.0000      Y      -0.0000      Z      -1.6467
       Tot       1.6467
    Quadrupole Moments (Debye-Ang)
        XX     -51.8893     XY       0.0000     YY     -64.0304
        XZ       0.0000     YZ      -0.0000     ZZ     -52.2019
    Octopole Moments (Debye-Ang^2)
       XXX      -0.0000    XXY       0.0000    XYY      -0.0000
       YYY       0.0000    XXZ      -3.0778    XYZ       0.0000
       YYZ      -2.2639    XZZ       0.0000    YZZ       0.0000
       ZZZ     -11.8146
    Hexadecapole Moments (Debye-Ang^3)
      XXXX   -1114.9706   XXXY       0.0000   XXYY    -248.0518
      XYYY       0.0000   YYYY     -77.2859   XXXZ      -0.0000
      XXYZ      -0.0000   XYYZ      -0.0000   YYYZ      -0.0000
      XXZZ    -277.4643   XYZZ       0.0000   YYZZ    -116.8525
      XZZZ       0.0000   YZZZ      -0.0000   ZZZZ    -496.8016
 -----------------------------------------------------------------

 Begin NBO analysis for the ground state 

 This is the NBO5 program in Q-Chem
 (Use NBO_EXTERNAL to run external NBO6 or NBO7)

 *********************************** NBO 5.0 ***********************************
             N A T U R A L   A T O M I C   O R B I T A L   A N D
          N A T U R A L   B O N D   O R B I T A L   A N A L Y S I S
 *******************************************************************************
  (c) Copyright 1996-2002 Board of Regents of the University of Wisconsin System
      on behalf of the Theoretical Chemistry Institute.  All Rights Reserved.

          Cite this program as:

          NBO 5.0.  E. D. Glendening, J. K. Badenhoop, A. E. Reed,
          J. E. Carpenter, J. A. Bohmann, C. M. Morales, and F. Weinhold
          (Theoretical Chemistry Institute, University of Wisconsin,
          Madison, WI, 2001); http://www.chem.wisc.edu/~nbo5

       /PLOT   / : Write information for the orbital plotter
  This is a closed-shell NBO calculation

 Job title: Starting NBO analysis.                                          

 Storage needed:      457312 in NPA,      366069 in NBO,
                      366650 in NLMO (    23999920 available)


 NATURAL POPULATIONS:  Natural atomic orbital occupancies 
                                                          
  NAO Atom No lang   Type(AO)    Occupancy      Energy    
 ---------------------------------------------------------
   1    C  1  s      Cor( 1s)     1.99899     -10.16290
   2    C  1  s      Val( 2s)     0.96482      -0.16174
   3    C  1  s      Ryd( 4s)     0.00100       1.66619
   4    C  1  s      Ryd( 3s)     0.00007       0.76257
   5    C  1  px     Val( 2p)     1.18174      -0.06200
   6    C  1  px     Ryd( 4p)     0.00605       1.07069
   7    C  1  px     Ryd( 3p)     0.00006       0.51132
   8    C  1  py     Val( 2p)     0.96320      -0.10034
   9    C  1  py     Ryd( 4p)     0.00079       0.74078
  10    C  1  py     Ryd( 3p)     0.00007       0.31229
  11    C  1  pz     Val( 2p)     1.06534      -0.03607
  12    C  1  pz     Ryd( 4p)     0.00488       0.96893
  13    C  1  pz     Ryd( 3p)     0.00012       0.41759
  14    C  1  dxy    Ryd( 4d)     0.00057       1.46950
  15    C  1  dxy    Ryd( 3d)     0.00002       1.14764
  16    C  1  dxz    Ryd( 4d)     0.00074       2.22335
  17    C  1  dxz    Ryd( 3d)     0.00048       1.50717
  18    C  1  dyz    Ryd( 4d)     0.00041       1.50386
  19    C  1  dyz    Ryd( 3d)     0.00018       1.01402
  20    C  1  dx2y2  Ryd( 4d)     0.00116       2.02777
  21    C  1  dx2y2  Ryd( 3d)     0.00053       1.19841
  22    C  1  dz2    Ryd( 4d)     0.00134       2.09149
  23    C  1  dz2    Ryd( 3d)     0.00056       1.41745
 
  24    C  2  s      Cor( 1s)     1.99898     -10.15954
  25    C  2  s      Val( 2s)     0.96440      -0.16557
  26    C  2  s      Ryd( 4s)     0.00140       1.60964
  27    C  2  s      Ryd( 3s)     0.00008       0.84526
  28    C  2  px     Val( 2p)     1.15748      -0.06617
  29    C  2  px     Ryd( 4p)     0.00458       1.10235
  30    C  2  px     Ryd( 3p)     0.00008       0.47798
  31    C  2  py     Val( 2p)     1.05124      -0.11511
  32    C  2  py     Ryd( 4p)     0.00136       0.73739
  33    C  2  py     Ryd( 3p)     0.00012       0.30977
  34    C  2  pz     Val( 2p)     1.10484      -0.05177
  35    C  2  pz     Ryd( 4p)     0.00395       1.03536
  36    C  2  pz     Ryd( 3p)     0.00009       0.41724
  37    C  2  dxy    Ryd( 4d)     0.00054       1.38983
  38    C  2  dxy    Ryd( 3d)     0.00009       1.19811
  39    C  2  dxz    Ryd( 4d)     0.00053       2.25896
  40    C  2  dxz    Ryd( 3d)     0.00064       1.50183
  41    C  2  dyz    Ryd( 4d)     0.00042       1.41338
  42    C  2  dyz    Ryd( 3d)     0.00013       1.13366
  43    C  2  dx2y2  Ryd( 4d)     0.00141       1.93859
  44    C  2  dx2y2  Ryd( 3d)     0.00049       1.27644
  45    C  2  dz2    Ryd( 4d)     0.00135       2.02817
  46    C  2  dz2    Ryd( 3d)     0.00023       1.45935
 
  47    C  3  s      Cor( 1s)     1.99898     -10.20586
  48    C  3  s      Val( 2s)     0.91831      -0.16302
  49    C  3  s      Ryd( 4s)     0.00179       1.44680
  50    C  3  s      Ryd( 3s)     0.00005       0.81865
  51    C  3  px     Val( 2p)     0.91217      -0.01412
  52    C  3  px     Ryd( 4p)     0.00508       0.90687
  53    C  3  px     Ryd( 3p)     0.00016       0.43571
  54    C  3  py     Val( 2p)     0.99725      -0.12941
  55    C  3  py     Ryd( 4p)     0.00163       0.72176
  56    C  3  py     Ryd( 3p)     0.00028       0.32245
  57    C  3  pz     Val( 2p)     1.11725      -0.06979
  58    C  3  pz     Ryd( 4p)     0.00549       1.09934
  59    C  3  pz     Ryd( 3p)     0.00008       0.47121
  60    C  3  dxy    Ryd( 4d)     0.00123       1.78894
  61    C  3  dxy    Ryd( 3d)     0.00012       0.88226
  62    C  3  dxz    Ryd( 4d)     0.00142       2.16720
  63    C  3  dxz    Ryd( 3d)     0.00047       1.61693
  64    C  3  dyz    Ryd( 4d)     0.00041       1.71875
  65    C  3  dyz    Ryd( 3d)     0.00017       0.88816
  66    C  3  dx2y2  Ryd( 4d)     0.00088       2.11211
  67    C  3  dx2y2  Ryd( 3d)     0.00066       1.17795
  68    C  3  dz2    Ryd( 4d)     0.00094       2.20703
  69    C  3  dz2    Ryd( 3d)     0.00035       1.48387
 
  70    N  4  s      Cor( 1s)     1.99923     -14.31189
  71    N  4  s      Val( 2s)     1.25851      -0.59205
  72    N  4  s      Ryd( 4s)     0.00040       2.14832
  73    N  4  s      Ryd( 3s)     0.00017       1.04599
  74    N  4  px     Val( 2p)     1.32760      -0.29729
  75    N  4  px     Ryd( 4p)     0.00181       1.42358
  76    N  4  px     Ryd( 3p)     0.00043       0.97711
  77    N  4  py     Val( 2p)     1.48169      -0.30001
  78    N  4  py     Ryd( 4p)     0.00138       1.00911
  79    N  4  py     Ryd( 3p)     0.00025       0.44531
  80    N  4  pz     Val( 2p)     1.54427      -0.36473
  81    N  4  pz     Ryd( 4p)     0.00245       1.41848
  82    N  4  pz     Ryd( 3p)     0.00042       0.79946
  83    N  4  dxy    Ryd( 3d)     0.00073       1.76910
  84    N  4  dxy    Ryd( 4d)     0.00006       1.87909
  85    N  4  dxz    Ryd( 3d)     0.00095       2.41964
  86    N  4  dxz    Ryd( 4d)     0.00044       2.57626
  87    N  4  dyz    Ryd( 3d)     0.00052       1.71972
  88    N  4  dyz    Ryd( 4d)     0.00005       1.77205
  89    N  4  dx2y2  Ryd( 3d)     0.00142       2.19964
  90    N  4  dx2y2  Ryd( 4d)     0.00031       2.22652
  91    N  4  dz2    Ryd( 3d)     0.00080       2.30385
  92    N  4  dz2    Ryd( 4d)     0.00034       2.62938
 
  93    B  5  s      Cor( 1s)     1.99891      -6.72481
  94    B  5  s      Val( 2s)     0.55221       0.15419
  95    B  5  s      Ryd( 4s)     0.00097       0.77707
  96    B  5  s      Ryd( 3s)     0.00006       0.54662
  97    B  5  px     Val( 2p)     0.70293       0.22196
  98    B  5  px     Ryd( 4p)     0.00476       0.56283
  99    B  5  px     Ryd( 3p)     0.00008       0.42276
 100    B  5  py     Val( 2p)     0.47824       0.06796
 101    B  5  py     Ryd( 4p)     0.00051       0.47539
 102    B  5  py     Ryd( 3p)     0.00005       0.23863
 103    B  5  pz     Val( 2p)     0.48098       0.24864
 104    B  5  pz     Ryd( 4p)     0.00463       0.52266
 105    B  5  pz     Ryd( 3p)     0.00012       0.40663
 106    B  5  dxy    Ryd( 3d)     0.00083       0.77686
 107    B  5  dxy    Ryd( 4d)     0.00030       1.37800
 108    B  5  dxz    Ryd( 3d)     0.00128       1.06986
 109    B  5  dxz    Ryd( 4d)     0.00021       2.13196
 110    B  5  dyz    Ryd( 3d)     0.00073       0.71333
 111    B  5  dyz    Ryd( 4d)     0.00016       1.32007
 112    B  5  dx2y2  Ryd( 3d)     0.00078       0.74800
 113    B  5  dx2y2  Ryd( 4d)     0.00088       1.61796
 114    B  5  dz2    Ryd( 3d)     0.00137       0.89064
 115    B  5  dz2    Ryd( 4d)     0.00141       1.72283
 
 116    C  6  s      Cor( 1s)     1.99892     -10.12416
 117    C  6  s      Val( 2s)     1.06067      -0.21395
 118    C  6  s      Ryd( 4s)     0.00157       1.62439
 119    C  6  s      Ryd( 3s)     0.00007       0.78941
 120    C  6  px     Val( 2p)     1.24134      -0.09533
 121    C  6  px     Ryd( 4p)     0.00382       1.07328
 122    C  6  px     Ryd( 3p)     0.00015       0.52209
 123    C  6  py     Val( 2p)     0.99457      -0.09400
 124    C  6  py     Ryd( 4p)     0.00029       0.83800
 125    C  6  py     Ryd( 3p)     0.00017       0.32567
 126    C  6  pz     Val( 2p)     1.22906      -0.06532
 127    C  6  pz     Ryd( 4p)     0.00533       1.15518
 128    C  6  pz     Ryd( 3p)     0.00007       0.53063
 129    C  6  dxy    Ryd( 3d)     0.00009       1.03015
 130    C  6  dxy    Ryd( 4d)     0.00026       1.52109
 131    C  6  dxz    Ryd( 4d)     0.00159       1.96204
 132    C  6  dxz    Ryd( 3d)     0.00041       1.90929
 133    C  6  dyz    Ryd( 3d)     0.00052       0.97341
 134    C  6  dyz    Ryd( 4d)     0.00008       1.58663
 135    C  6  dx2y2  Ryd( 3d)     0.00205       1.40821
 136    C  6  dx2y2  Ryd( 4d)     0.00021       1.71786
 137    C  6  dz2    Ryd( 4d)     0.00046       1.89651
 138    C  6  dz2    Ryd( 3d)     0.00127       1.68798
 
 139    C  7  s      Cor( 1s)     1.99892     -10.12416
 140    C  7  s      Val( 2s)     1.06067      -0.21395
 141    C  7  s      Ryd( 4s)     0.00157       1.62439
 142    C  7  s      Ryd( 3s)     0.00007       0.78941
 143    C  7  px     Val( 2p)     1.24134      -0.09533
 144    C  7  px     Ryd( 4p)     0.00382       1.07328
 145    C  7  px     Ryd( 3p)     0.00015       0.52209
 146    C  7  py     Val( 2p)     0.99457      -0.09400
 147    C  7  py     Ryd( 4p)     0.00029       0.83800
 148    C  7  py     Ryd( 3p)     0.00017       0.32567
 149    C  7  pz     Val( 2p)     1.22906      -0.06532
 150    C  7  pz     Ryd( 4p)     0.00533       1.15518
 151    C  7  pz     Ryd( 3p)     0.00007       0.53063
 152    C  7  dxy    Ryd( 3d)     0.00009       1.03015
 153    C  7  dxy    Ryd( 4d)     0.00026       1.52109
 154    C  7  dxz    Ryd( 4d)     0.00159       1.96204
 155    C  7  dxz    Ryd( 3d)     0.00041       1.90930
 156    C  7  dyz    Ryd( 3d)     0.00052       0.97341
 157    C  7  dyz    Ryd( 4d)     0.00008       1.58663
 158    C  7  dx2y2  Ryd( 3d)     0.00205       1.40821
 159    C  7  dx2y2  Ryd( 4d)     0.00021       1.71786
 160    C  7  dz2    Ryd( 4d)     0.00046       1.89651
 161    C  7  dz2    Ryd( 3d)     0.00127       1.68798
 
 162    C  8  s      Cor( 1s)     1.99899     -10.16290
 163    C  8  s      Val( 2s)     0.96482      -0.16174
 164    C  8  s      Ryd( 4s)     0.00100       1.66619
 165    C  8  s      Ryd( 3s)     0.00007       0.76257
 166    C  8  px     Val( 2p)     1.18174      -0.06200
 167    C  8  px     Ryd( 4p)     0.00605       1.07069
 168    C  8  px     Ryd( 3p)     0.00006       0.51132
 169    C  8  py     Val( 2p)     0.96320      -0.10034
 170    C  8  py     Ryd( 4p)     0.00079       0.74078
 171    C  8  py     Ryd( 3p)     0.00007       0.31229
 172    C  8  pz     Val( 2p)     1.06534      -0.03607
 173    C  8  pz     Ryd( 4p)     0.00488       0.96893
 174    C  8  pz     Ryd( 3p)     0.00012       0.41759
 175    C  8  dxy    Ryd( 4d)     0.00057       1.46950
 176    C  8  dxy    Ryd( 3d)     0.00002       1.14764
 177    C  8  dxz    Ryd( 4d)     0.00074       2.22335
 178    C  8  dxz    Ryd( 3d)     0.00048       1.50717
 179    C  8  dyz    Ryd( 4d)     0.00041       1.50386
 180    C  8  dyz    Ryd( 3d)     0.00018       1.01402
 181    C  8  dx2y2  Ryd( 4d)     0.00116       2.02777
 182    C  8  dx2y2  Ryd( 3d)     0.00053       1.19841
 183    C  8  dz2    Ryd( 4d)     0.00134       2.09149
 184    C  8  dz2    Ryd( 3d)     0.00056       1.41745
 
 185    C  9  s      Cor( 1s)     1.99898     -10.15954
 186    C  9  s      Val( 2s)     0.96440      -0.16557
 187    C  9  s      Ryd( 4s)     0.00140       1.60964
 188    C  9  s      Ryd( 3s)     0.00008       0.84526
 189    C  9  px     Val( 2p)     1.15748      -0.06617
 190    C  9  px     Ryd( 4p)     0.00458       1.10235
 191    C  9  px     Ryd( 3p)     0.00008       0.47798
 192    C  9  py     Val( 2p)     1.05124      -0.11511
 193    C  9  py     Ryd( 4p)     0.00136       0.73739
 194    C  9  py     Ryd( 3p)     0.00012       0.30977
 195    C  9  pz     Val( 2p)     1.10484      -0.05177
 196    C  9  pz     Ryd( 4p)     0.00395       1.03536
 197    C  9  pz     Ryd( 3p)     0.00009       0.41724
 198    C  9  dxy    Ryd( 4d)     0.00054       1.38983
 199    C  9  dxy    Ryd( 3d)     0.00009       1.19811
 200    C  9  dxz    Ryd( 4d)     0.00053       2.25896
 201    C  9  dxz    Ryd( 3d)     0.00064       1.50183
 202    C  9  dyz    Ryd( 4d)     0.00042       1.41338
 203    C  9  dyz    Ryd( 3d)     0.00013       1.13366
 204    C  9  dx2y2  Ryd( 4d)     0.00141       1.93859
 205    C  9  dx2y2  Ryd( 3d)     0.00049       1.27644
 206    C  9  dz2    Ryd( 4d)     0.00135       2.02817
 207    C  9  dz2    Ryd( 3d)     0.00023       1.45935
 
 208    C 10  s      Cor( 1s)     1.99898     -10.20586
 209    C 10  s      Val( 2s)     0.91831      -0.16302
 210    C 10  s      Ryd( 4s)     0.00179       1.44680
 211    C 10  s      Ryd( 3s)     0.00005       0.81865
 212    C 10  px     Val( 2p)     0.91217      -0.01412
 213    C 10  px     Ryd( 4p)     0.00508       0.90687
 214    C 10  px     Ryd( 3p)     0.00016       0.43571
 215    C 10  py     Val( 2p)     0.99725      -0.12941
 216    C 10  py     Ryd( 4p)     0.00163       0.72176
 217    C 10  py     Ryd( 3p)     0.00028       0.32245
 218    C 10  pz     Val( 2p)     1.11725      -0.06979
 219    C 10  pz     Ryd( 4p)     0.00549       1.09934
 220    C 10  pz     Ryd( 3p)     0.00008       0.47121
 221    C 10  dxy    Ryd( 4d)     0.00123       1.78894
 222    C 10  dxy    Ryd( 3d)     0.00012       0.88226
 223    C 10  dxz    Ryd( 4d)     0.00142       2.16720
 224    C 10  dxz    Ryd( 3d)     0.00047       1.61693
 225    C 10  dyz    Ryd( 4d)     0.00041       1.71875
 226    C 10  dyz    Ryd( 3d)     0.00017       0.88816
 227    C 10  dx2y2  Ryd( 4d)     0.00088       2.11211
 228    C 10  dx2y2  Ryd( 3d)     0.00066       1.17795
 229    C 10  dz2    Ryd( 4d)     0.00094       2.20703
 230    C 10  dz2    Ryd( 3d)     0.00035       1.48387
 
 231    H 11  s      Val( 1s)     0.76915       0.08728
 232    H 11  s      Ryd( 2s)     0.00108       0.46067
 233    H 11  s      Ryd( 3s)     0.00002       0.82949
 234    H 11  px     Ryd( 2p)     0.00081       0.45561
 235    H 11  px     Ryd( 3p)     0.00075       2.48990
 236    H 11  py     Ryd( 2p)     0.00003       0.45907
 237    H 11  py     Ryd( 3p)     0.00018       1.87707
 238    H 11  pz     Ryd( 2p)     0.00193       0.49602
 239    H 11  pz     Ryd( 3p)     0.00024       2.21424
 
 240    H 12  s      Val( 1s)     0.75495       0.08074
 241    H 12  s      Ryd( 2s)     0.00057       0.45584
 242    H 12  s      Ryd( 3s)     0.00002       0.80728
 243    H 12  px     Ryd( 2p)     0.00111       0.55200
 244    H 12  px     Ryd( 3p)     0.00052       2.36855
 245    H 12  py     Ryd( 2p)     0.00015       0.50226
 246    H 12  py     Ryd( 3p)     0.00017       1.83610
 247    H 12  pz     Ryd( 2p)     0.00137       0.57005
 248    H 12  pz     Ryd( 3p)     0.00038       2.20857
 
 249    H 13  s      Val( 1s)     0.77537       0.05461
 250    H 13  s      Ryd( 2s)     0.00093       0.49540
 251    H 13  s      Ryd( 3s)     0.00007       0.78063
 252    H 13  px     Ryd( 2p)     0.00036       1.23506
 253    H 13  px     Ryd( 3p)     0.00049       1.52861
 254    H 13  py     Ryd( 2p)     0.00020       0.97428
 255    H 13  py     Ryd( 3p)     0.00008       1.36966
 256    H 13  pz     Ryd( 2p)     0.00122       1.27830
 257    H 13  pz     Ryd( 3p)     0.00027       1.85291
 
 258    H 14  s      Val( 1s)     0.75917       0.09863
 259    H 14  s      Ryd( 2s)     0.00081       0.53394
 260    H 14  s      Ryd( 3s)     0.00003       0.65636
 261    H 14  px     Ryd( 2p)     0.00189       0.56533
 262    H 14  px     Ryd( 3p)     0.00014       2.19400
 263    H 14  py     Ryd( 2p)     0.00004       0.48176
 264    H 14  py     Ryd( 3p)     0.00020       1.90090
 265    H 14  pz     Ryd( 2p)     0.00049       0.49299
 266    H 14  pz     Ryd( 3p)     0.00087       2.56766
 
 267    H 15  s      Val( 1s)     0.75917       0.09863
 268    H 15  s      Ryd( 2s)     0.00081       0.53394
 269    H 15  s      Ryd( 3s)     0.00003       0.65636
 270    H 15  px     Ryd( 2p)     0.00189       0.56533
 271    H 15  px     Ryd( 3p)     0.00014       2.19400
 272    H 15  py     Ryd( 2p)     0.00004       0.48176
 273    H 15  py     Ryd( 3p)     0.00020       1.90090
 274    H 15  pz     Ryd( 2p)     0.00049       0.49299
 275    H 15  pz     Ryd( 3p)     0.00087       2.56766
 
 276    H 16  s      Val( 1s)     0.76915       0.08728
 277    H 16  s      Ryd( 2s)     0.00108       0.46067
 278    H 16  s      Ryd( 3s)     0.00002       0.82949
 279    H 16  px     Ryd( 2p)     0.00081       0.45561
 280    H 16  px     Ryd( 3p)     0.00075       2.48990
 281    H 16  py     Ryd( 2p)     0.00003       0.45907
 282    H 16  py     Ryd( 3p)     0.00018       1.87707
 283    H 16  pz     Ryd( 2p)     0.00193       0.49602
 284    H 16  pz     Ryd( 3p)     0.00024       2.21424
 
 285    H 17  s      Val( 1s)     0.75495       0.08074
 286    H 17  s      Ryd( 2s)     0.00057       0.45584
 287    H 17  s      Ryd( 3s)     0.00002       0.80728
 288    H 17  px     Ryd( 2p)     0.00111       0.55200
 289    H 17  px     Ryd( 3p)     0.00052       2.36855
 290    H 17  py     Ryd( 2p)     0.00015       0.50226
 291    H 17  py     Ryd( 3p)     0.00017       1.83610
 292    H 17  pz     Ryd( 2p)     0.00137       0.57005
 293    H 17  pz     Ryd( 3p)     0.00038       2.20857
 
 294    H 18  s      Val( 1s)     0.77537       0.05461
 295    H 18  s      Ryd( 2s)     0.00093       0.49540
 296    H 18  s      Ryd( 3s)     0.00007       0.78063
 297    H 18  px     Ryd( 2p)     0.00036       1.23506
 298    H 18  px     Ryd( 3p)     0.00049       1.52861
 299    H 18  py     Ryd( 2p)     0.00020       0.97428
 300    H 18  py     Ryd( 3p)     0.00008       1.36966
 301    H 18  pz     Ryd( 2p)     0.00122       1.27830
 302    H 18  pz     Ryd( 3p)     0.00027       1.85291
 
   1 low occupancy (<1.9990e) core orbital  found on  C  1
   1 low occupancy (<1.9990e) core orbital  found on  C  2
   1 low occupancy (<1.9990e) core orbital  found on  C  3
   1 low occupancy (<1.9990e) core orbital  found on  B  5
   1 low occupancy (<1.9990e) core orbital  found on  C  6
   1 low occupancy (<1.9990e) core orbital  found on  C  7
   1 low occupancy (<1.9990e) core orbital  found on  C  8
   1 low occupancy (<1.9990e) core orbital  found on  C  9
   1 low occupancy (<1.9990e) core orbital  found on  C 10
 
     Population inversion found on atom  C  1
     Population inversion found on atom  C  2
     Population inversion found on atom  C  3
     Population inversion found on atom  N  4
     Population inversion found on atom  B  5
     Population inversion found on atom  C  6
     Population inversion found on atom  C  7
     Population inversion found on atom  C  8
     Population inversion found on atom  C  9
     Population inversion found on atom  C 10
     Population inversion found on atom  H 11
     Population inversion found on atom  H 12
     Population inversion found on atom  H 13
     Population inversion found on atom  H 14
     Population inversion found on atom  H 15
     Population inversion found on atom  H 16
     Population inversion found on atom  H 17
     Population inversion found on atom  H 18


 Summary of Natural Population Analysis:

                                     Natural Population
             Natural    ---------------------------------------------
  Atom No    Charge        Core      Valence    Rydberg      Total
 --------------------------------------------------------------------
    C  1   -0.19312      1.99899     4.17510    0.01903     6.19312
    C  2   -0.29443      1.99898     4.27796    0.01749     6.29443
    C  3    0.03484      1.99898     3.94498    0.02120     5.96516
    N  4   -0.62421      1.99923     5.61207    0.01292     7.62421
    B  5    0.76760      1.99891     2.21435    0.01914     4.23240
    C  6   -0.54296      1.99892     4.52563    0.01840     6.54296
    C  7   -0.54296      1.99892     4.52563    0.01840     6.54296
    C  8   -0.19312      1.99899     4.17510    0.01903     6.19312
    C  9   -0.29443      1.99898     4.27796    0.01749     6.29443
    C 10    0.03484      1.99898     3.94498    0.02120     5.96516
    H 11    0.22583      0.00000     0.76915    0.00502     0.77417
    H 12    0.24074      0.00000     0.75495    0.00431     0.75926
    H 13    0.22101      0.00000     0.77537    0.00362     0.77899
    H 14    0.23638      0.00000     0.75917    0.00445     0.76362
    H 15    0.23638      0.00000     0.75917    0.00445     0.76362
    H 16    0.22583      0.00000     0.76915    0.00502     0.77417
    H 17    0.24074      0.00000     0.75495    0.00431     0.75926
    H 18    0.22101      0.00000     0.77537    0.00362     0.77899
 ====================================================================
 * Total * -0.00000     19.98989    47.79102    0.21909    68.00000

                                 Natural Population      
 --------------------------------------------------------
   Core                      19.98989 ( 99.9495% of  20)
   Valence                   47.79102 ( 99.5646% of  48)
   Natural Minimal Basis     67.78091 ( 99.6778% of  68)
   Natural Rydberg Basis      0.21909 (  0.3222% of  68)
 --------------------------------------------------------

    Atom No         Natural Electron Configuration
 ----------------------------------------------------------------------------
      C  1      [core]2s( 0.96)2p( 3.21)4p( 0.01)
      C  2      [core]2s( 0.96)2p( 3.31)4p( 0.01)
      C  3      [core]2s( 0.92)2p( 3.03)4p( 0.01)
      N  4      [core]2s( 1.26)2p( 4.35)4p( 0.01)
      B  5      [core]2s( 0.55)2p( 1.66)4p( 0.01)
      C  6      [core]2s( 1.06)2p( 3.46)4p( 0.01)
      C  7      [core]2s( 1.06)2p( 3.46)4p( 0.01)
      C  8      [core]2s( 0.96)2p( 3.21)4p( 0.01)
      C  9      [core]2s( 0.96)2p( 3.31)4p( 0.01)
      C 10      [core]2s( 0.92)2p( 3.03)4p( 0.01)
      H 11            1s( 0.77)
      H 12            1s( 0.75)
      H 13            1s( 0.78)
      H 14            1s( 0.76)
      H 15            1s( 0.76)
      H 16            1s( 0.77)
      H 17            1s( 0.75)
      H 18            1s( 0.78)


 NATURAL BOND ORBITAL ANALYSIS:

                       Occupancies       Lewis Structure    Low   High
           Occ.    -------------------  -----------------   occ   occ
  Cycle   Thresh.   Lewis   Non-Lewis     CR  BD  3C  LP    (L)   (NL)   Dev
 =============================================================================
   1(1)    1.90    63.14028   4.85972     10  19   0   5     5      5    0.68
   2(2)    1.90    63.14028   4.85972     10  19   0   5     5      5    0.68
   3(1)    1.80    64.70210   3.29790     10  21   0   3     3      5    0.68
   4(2)    1.80    64.70210   3.29790     10  21   0   3     3      5    0.68
   5(1)    1.70    65.78942   2.21058     10  23   0   1     1      5    0.66
   6(2)    1.70    66.30517   1.69483     10  23   0   1     1      5    0.22
   7(3)    1.70    66.30517   1.69483     10  23   0   1     1      5    0.22
   8(1)    1.60    66.10343   1.89657     10  23   0   1     0      6    0.22
   9(2)    1.60    66.10343   1.89657     10  23   0   1     0      6    0.22
  10(1)    1.50    66.10343   1.89657     10  23   0   1     0      6    0.22
  11(2)    1.50    66.10343   1.89657     10  23   0   1     0      6    0.22
  12(1)    1.70    66.30517   1.69483     10  23   0   1     1      5    0.22
 -----------------------------------------------------------------------------

 Strongly delocalized structure accepted

           1 low occupancy (<1.9990e) core orbital  found on  C 1
           1 low occupancy (<1.9990e) core orbital  found on  C 2
           1 low occupancy (<1.9990e) core orbital  found on  C 3
           1 low occupancy (<1.9990e) core orbital  found on  B 5
           1 low occupancy (<1.9990e) core orbital  found on  C 6
           1 low occupancy (<1.9990e) core orbital  found on  C 7
           1 low occupancy (<1.9990e) core orbital  found on  C 8
           1 low occupancy (<1.9990e) core orbital  found on  C 9
           1 low occupancy (<1.9990e) core orbital  found on  C10

 --------------------------------------------------------
   Core                     19.98993 ( 99.950% of  20)
   Valence Lewis            46.31524 ( 96.490% of  48)
  ==================       ============================
   Total Lewis              66.30517 ( 97.508% of  68)
  -----------------------------------------------------
   Valence non-Lewis         1.55753 (  2.290% of  68)
   Rydberg non-Lewis         0.13730 (  0.202% of  68)
  ==================       ============================
   Total non-Lewis           1.69483 (  2.492% of  68)
 --------------------------------------------------------


     (Occupancy)   Bond orbital/ Coefficients/ Hybrids
 -------------------------------------------------------------------------------
   1. (1.97589) BD ( 1) C  1- C  2       
               ( 49.30%)   0.7021* C  1 s( 33.24%)p 2.00( 66.59%)d 0.01(  0.17%)
                                         0.0000  0.5765  0.0079  0.0014 -0.0393
                                         0.0365  0.0006  0.0000  0.0000  0.0000
                                        -0.8141 -0.0144  0.0048  0.0000  0.0000
                                         0.0093  0.0044  0.0000  0.0000  0.0105
                                         0.0109  0.0359  0.0098
               ( 50.70%)   0.7121* C  2 s( 34.81%)p 1.87( 65.04%)d 0.00(  0.15%)
                                         0.0000  0.5900  0.0057  0.0015  0.0790
                                         0.0362  0.0017  0.0000  0.0000  0.0000
                                         0.8017  0.0058 -0.0056  0.0000  0.0000
                                        -0.0030  0.0019  0.0000  0.0000  0.0107
                                        -0.0084  0.0353 -0.0072
   2. (1.98134) BD ( 1) C  1- C  6       
               ( 50.34%)   0.7095* C  1 s( 37.87%)p 1.64( 61.99%)d 0.00(  0.13%)
                                        -0.0000  0.6153  0.0142  0.0005 -0.6329
                                         0.0128  0.0051  0.0000  0.0000  0.0000
                                         0.4665  0.0400 -0.0007  0.0000  0.0000
                                        -0.0217 -0.0020  0.0000  0.0000  0.0268
                                         0.0106  0.0013  0.0041
               ( 49.66%)   0.7047* C  6 s( 33.85%)p 1.95( 65.98%)d 0.01(  0.17%)
                                         0.0001  0.5814  0.0214  0.0031  0.6834
                                         0.0407 -0.0031  0.0000  0.0000  0.0000
                                        -0.4369  0.0133  0.0027  0.0000  0.0000
                                        -0.0270 -0.0063  0.0000  0.0000  0.0272
                                         0.0039  0.0124 -0.0041
   3. (1.79702) BD ( 2) C  1- C  6       
               ( 49.04%)   0.7003* C  1 s(  0.00%)p 1.00( 99.93%)d 0.00(  0.07%)
                                         0.0000  0.0000  0.0000  0.0000  0.0000
                                         0.0000  0.0000  0.9995 -0.0181  0.0077
                                         0.0000  0.0000  0.0000 -0.0250  0.0043
                                         0.0000  0.0000  0.0032 -0.0059  0.0000
                                         0.0000  0.0000  0.0000
               ( 50.96%)   0.7139* C  6 s(  0.00%)p 1.00( 99.92%)d 0.00(  0.08%)
                                         0.0000  0.0000  0.0000  0.0000  0.0000
                                         0.0000  0.0000  0.9995 -0.0051  0.0122
                                         0.0000  0.0000  0.0000  0.0089  0.0115
                                         0.0000  0.0000 -0.0235 -0.0091  0.0000
                                         0.0000  0.0000  0.0000
   4. (1.98210) BD ( 1) C  1- H 11       
               ( 61.71%)   0.7855* C  1 s( 28.71%)p 2.48( 71.23%)d 0.00(  0.07%)
                                        -0.0003  0.5355 -0.0182 -0.0020  0.7718
                                        -0.0118  0.0001  0.0000  0.0000  0.0000
                                         0.3413  0.0009  0.0006  0.0000  0.0000
                                         0.0078 -0.0136  0.0000  0.0000  0.0138
                                        -0.0115 -0.0025  0.0088
               ( 38.29%)   0.6188* H 11 s( 99.84%)p 0.00(  0.16%)
                                         0.9992 -0.0034  0.0002 -0.0210 -0.0288
                                         0.0000  0.0000 -0.0099 -0.0138
   5. (1.97913) BD ( 1) C  2- C  3       
               ( 49.72%)   0.7052* C  2 s( 35.70%)p 1.80( 64.14%)d 0.00(  0.16%)
                                         0.0000  0.5972  0.0183  0.0009 -0.7095
                                        -0.0055  0.0055  0.0000  0.0000  0.0000
                                        -0.3695 -0.0376  0.0005  0.0000  0.0000
                                         0.0182  0.0006  0.0000  0.0000  0.0338
                                        -0.0095 -0.0044 -0.0050
               ( 50.28%)   0.7091* C  3 s( 40.72%)p 1.45( 59.16%)d 0.00(  0.11%)
                                        -0.0000  0.6380  0.0120 -0.0016  0.6761
                                         0.0176 -0.0040  0.0000  0.0000  0.0000
                                         0.3653 -0.0268 -0.0020  0.0000  0.0000
                                         0.0195  0.0126  0.0000  0.0000  0.0165
                                         0.0171  0.0007  0.0066
   6. (1.83606) BD ( 2) C  2- C  3       
               ( 51.67%)   0.7188* C  2 s(  0.00%)p 1.00( 99.94%)d 0.00(  0.06%)
                                         0.0000  0.0000  0.0000  0.0000  0.0000
                                         0.0000  0.0000  0.9994 -0.0220  0.0096
                                         0.0000  0.0000  0.0000 -0.0237 -0.0071
                                         0.0000  0.0000 -0.0057  0.0001  0.0000
                                         0.0000  0.0000  0.0000
               ( 48.33%)   0.6952* C  3 s(  0.00%)p 1.00( 99.92%)d 0.00(  0.08%)
                                         0.0000  0.0000  0.0000  0.0000  0.0000
                                         0.0000  0.0000  0.9993 -0.0179  0.0153
                                         0.0000  0.0000  0.0000  0.0191  0.0087
                                         0.0000  0.0000  0.0175 -0.0052  0.0000
                                         0.0000  0.0000  0.0000
   7. (1.97708) BD ( 1) C  2- H 12       
               ( 62.09%)   0.7880* C  2 s( 29.34%)p 2.41( 70.60%)d 0.00(  0.06%)
                                        -0.0003  0.5413 -0.0190 -0.0024  0.6984
                                        -0.0029 -0.0006  0.0000  0.0000  0.0000
                                        -0.4672  0.0048  0.0015  0.0000  0.0000
                                        -0.0087 -0.0181  0.0000  0.0000  0.0112
                                         0.0078  0.0046 -0.0031
               ( 37.91%)   0.6157* H 12 s( 99.84%)p 0.00(  0.16%)
                                         0.9992 -0.0014  0.0003 -0.0260 -0.0216
                                         0.0000  0.0000  0.0162  0.0156
   8. (1.98251) BD ( 1) C  3- N  4       
               ( 35.94%)   0.5995* C  3 s( 28.52%)p 2.50( 71.30%)d 0.01(  0.18%)
                                        -0.0001  0.5335  0.0235  0.0034 -0.7303
                                        -0.0380  0.0072  0.0000  0.0000  0.0000
                                         0.4219  0.0080 -0.0028  0.0000  0.0000
                                        -0.0314 -0.0049  0.0000  0.0000  0.0278
                                         0.0050 -0.0017 -0.0024
               ( 64.06%)   0.8004* N  4 s( 30.45%)p 2.28( 69.46%)d 0.00(  0.09%)
                                        -0.0000  0.5518  0.0065  0.0016  0.7069
                                        -0.0014  0.0008  0.0000  0.0000  0.0000
                                        -0.4415 -0.0021 -0.0000  0.0000  0.0000
                                        -0.0166 -0.0066  0.0000  0.0000  0.0216
                                        -0.0056  0.0049 -0.0043
   9. (1.98139) BD ( 1) C  3- H 13       
               ( 61.29%)   0.7829* C  3 s( 30.73%)p 2.25( 69.19%)d 0.00(  0.08%)
                                         0.0004 -0.5540  0.0208  0.0007  0.0752
                                        -0.0106 -0.0016  0.0000  0.0000  0.0000
                                         0.8282 -0.0105 -0.0053  0.0000  0.0000
                                        -0.0065 -0.0038  0.0000  0.0000 -0.0003
                                        -0.0108 -0.0233  0.0089
               ( 38.71%)   0.6222* H 13 s( 99.84%)p 0.00(  0.16%)
                                        -0.9992  0.0021 -0.0005  0.0025 -0.0014
                                         0.0000  0.0000 -0.0386 -0.0121
  10. (1.96289) BD ( 1) N  4- B  5       
               ( 79.84%)   0.8935* N  4 s( 38.94%)p 1.57( 61.01%)d 0.00(  0.06%)
                                        -0.0001  0.6239 -0.0089 -0.0030 -0.0000
                                        -0.0000  0.0000  0.0000  0.0000  0.0000
                                         0.7807 -0.0236 -0.0072  0.0000  0.0000
                                        -0.0000  0.0000  0.0000  0.0000  0.0106
                                        -0.0096  0.0190  0.0015
               ( 20.16%)   0.4490* B  5 s( 26.21%)p 2.80( 73.44%)d 0.01(  0.35%)
                                        -0.0003  0.5119 -0.0058  0.0005  0.0000
                                         0.0000 -0.0000  0.0000  0.0000  0.0000
                                        -0.8570  0.0004  0.0089  0.0000  0.0000
                                         0.0000  0.0000  0.0000  0.0000 -0.0143
                                        -0.0036 -0.0197  0.0536
  11. (1.98251) BD ( 1) N  4- C 10       
               ( 64.06%)   0.8004* N  4 s( 30.45%)p 2.28( 69.46%)d 0.00(  0.09%)
                                        -0.0000  0.5518  0.0065  0.0016 -0.7069
                                         0.0014 -0.0008  0.0000  0.0000  0.0000
                                        -0.4415 -0.0021 -0.0000  0.0000  0.0000
                                         0.0166  0.0066  0.0000  0.0000  0.0216
                                        -0.0056  0.0049 -0.0043
               ( 35.94%)   0.5995* C 10 s( 28.52%)p 2.50( 71.30%)d 0.01(  0.18%)
                                        -0.0001  0.5335  0.0235  0.0034  0.7303
                                         0.0380 -0.0072  0.0000  0.0000  0.0000
                                         0.4219  0.0080 -0.0028  0.0000  0.0000
                                         0.0314  0.0049  0.0000  0.0000  0.0278
                                         0.0050 -0.0017 -0.0024
  12. (1.96523) BD ( 1) B  5- C  6       
               ( 33.17%)   0.5759* B  5 s( 36.80%)p 1.71( 63.11%)d 0.00(  0.08%)
                                        -0.0000  0.6067  0.0040 -0.0002  0.7069
                                        -0.0130 -0.0015  0.0000  0.0000  0.0000
                                         0.3614  0.0237 -0.0031  0.0000  0.0000
                                        -0.0044  0.0088  0.0000  0.0000  0.0085
                                         0.0235 -0.0012 -0.0110
               ( 66.83%)   0.8175* C  6 s( 38.83%)p 1.57( 61.03%)d 0.00(  0.15%)
                                         0.0001  0.6231 -0.0075 -0.0017 -0.7215
                                         0.0089  0.0077  0.0000  0.0000  0.0000
                                        -0.2972  0.0338  0.0032  0.0000  0.0000
                                         0.0198  0.0070  0.0000  0.0000  0.0307
                                        -0.0029  0.0077 -0.0043
  13. (1.96523) BD ( 1) B  5- C  7       
               ( 33.17%)   0.5759* B  5 s( 36.80%)p 1.71( 63.11%)d 0.00(  0.08%)
                                        -0.0000  0.6067  0.0040 -0.0002 -0.7069
                                         0.0130  0.0015  0.0000  0.0000  0.0000
                                         0.3614  0.0237 -0.0031  0.0000  0.0000
                                         0.0044 -0.0088  0.0000  0.0000  0.0085
                                         0.0235 -0.0012 -0.0110
               ( 66.83%)   0.8175* C  7 s( 38.83%)p 1.57( 61.03%)d 0.00(  0.15%)
                                         0.0001  0.6231 -0.0075 -0.0017  0.7215
                                        -0.0089 -0.0077  0.0000  0.0000  0.0000
                                        -0.2972  0.0338  0.0032  0.0000  0.0000
                                        -0.0198 -0.0070  0.0000  0.0000  0.0307
                                        -0.0029  0.0077 -0.0043
  14. (1.97726) BD ( 1) C  6- H 14       
               ( 61.97%)   0.7872* C  6 s( 27.02%)p 2.70( 72.90%)d 0.00(  0.08%)
                                        -0.0003  0.5197 -0.0086 -0.0006  0.1000
                                         0.0036  0.0002  0.0000  0.0000  0.0000
                                         0.8479  0.0035  0.0002  0.0000  0.0000
                                         0.0011  0.0074  0.0000  0.0000  0.0052
                                         0.0002 -0.0009  0.0272
               ( 38.03%)   0.6167* H 14 s( 99.86%)p 0.00(  0.14%)
                                         0.9993 -0.0017  0.0005 -0.0040 -0.0026
                                         0.0000  0.0000 -0.0200 -0.0315
  15. (1.98134) BD ( 1) C  7- C  8       
               ( 49.66%)   0.7047* C  7 s( 33.85%)p 1.95( 65.98%)d 0.01(  0.17%)
                                         0.0001  0.5814  0.0214  0.0031 -0.6834
                                        -0.0407  0.0031  0.0000  0.0000  0.0000
                                        -0.4369  0.0133  0.0027  0.0000  0.0000
                                         0.0270  0.0063  0.0000  0.0000  0.0272
                                         0.0039  0.0124 -0.0041
               ( 50.34%)   0.7095* C  8 s( 37.87%)p 1.64( 61.99%)d 0.00(  0.13%)
                                        -0.0000  0.6153  0.0142  0.0005  0.6329
                                        -0.0128 -0.0051  0.0000  0.0000  0.0000
                                         0.4665  0.0400 -0.0007  0.0000  0.0000
                                         0.0217  0.0020  0.0000  0.0000  0.0268
                                         0.0106  0.0013  0.0041
  16. (1.79702) BD ( 2) C  7- C  8       
               ( 50.96%)   0.7139* C  7 s(  0.00%)p 1.00( 99.92%)d 0.00(  0.08%)
                                         0.0000  0.0000  0.0000  0.0000  0.0000
                                         0.0000  0.0000  0.9995 -0.0051  0.0122
                                         0.0000  0.0000  0.0000 -0.0089 -0.0115
                                         0.0000  0.0000 -0.0235 -0.0091  0.0000
                                         0.0000  0.0000  0.0000
               ( 49.04%)   0.7003* C  8 s(  0.00%)p 1.00( 99.93%)d 0.00(  0.07%)
                                         0.0000  0.0000  0.0000  0.0000  0.0000
                                         0.0000  0.0000  0.9995 -0.0181  0.0077
                                         0.0000  0.0000  0.0000  0.0250 -0.0043
                                         0.0000  0.0000  0.0032 -0.0059  0.0000
                                         0.0000  0.0000  0.0000
  17. (1.97726) BD ( 1) C  7- H 15       
               ( 61.97%)   0.7872* C  7 s( 27.02%)p 2.70( 72.90%)d 0.00(  0.08%)
                                        -0.0003  0.5197 -0.0086 -0.0006 -0.1000
                                        -0.0036 -0.0002  0.0000  0.0000  0.0000
                                         0.8479  0.0035  0.0002  0.0000  0.0000
                                        -0.0011 -0.0074  0.0000  0.0000  0.0052
                                         0.0002 -0.0009  0.0272
               ( 38.03%)   0.6167* H 15 s( 99.86%)p 0.00(  0.14%)
                                         0.9993 -0.0017  0.0005  0.0040  0.0026
                                         0.0000  0.0000 -0.0200 -0.0315
  18. (1.97589) BD ( 1) C  8- C  9       
               ( 49.30%)   0.7021* C  8 s( 33.24%)p 2.00( 66.59%)d 0.01(  0.17%)
                                         0.0000  0.5765  0.0079  0.0014  0.0393
                                        -0.0365 -0.0006  0.0000  0.0000  0.0000
                                        -0.8141 -0.0144  0.0048  0.0000  0.0000
                                        -0.0093 -0.0044  0.0000  0.0000  0.0105
                                         0.0109  0.0359  0.0098
               ( 50.70%)   0.7121* C  9 s( 34.81%)p 1.87( 65.04%)d 0.00(  0.15%)
                                         0.0000  0.5900  0.0057  0.0015 -0.0790
                                        -0.0362 -0.0017  0.0000  0.0000  0.0000
                                         0.8017  0.0058 -0.0056  0.0000  0.0000
                                         0.0030 -0.0019  0.0000  0.0000  0.0107
                                        -0.0084  0.0353 -0.0072
  19. (1.98210) BD ( 1) C  8- H 16       
               ( 61.71%)   0.7855* C  8 s( 28.71%)p 2.48( 71.23%)d 0.00(  0.07%)
                                         0.0003 -0.5355  0.0182  0.0020  0.7718
                                        -0.0118  0.0001  0.0000  0.0000  0.0000
                                        -0.3413 -0.0009 -0.0006  0.0000  0.0000
                                         0.0078 -0.0136  0.0000  0.0000 -0.0138
                                         0.0115  0.0025 -0.0088
               ( 38.29%)   0.6188* H 16 s( 99.84%)p 0.00(  0.16%)
                                        -0.9992  0.0034 -0.0002 -0.0210 -0.0288
                                         0.0000  0.0000  0.0099  0.0138
  20. (1.97913) BD ( 1) C  9- C 10       
               ( 49.72%)   0.7052* C  9 s( 35.70%)p 1.80( 64.14%)d 0.00(  0.16%)
                                         0.0000  0.5972  0.0183  0.0009  0.7095
                                         0.0055 -0.0055  0.0000  0.0000  0.0000
                                        -0.3695 -0.0376  0.0005  0.0000  0.0000
                                        -0.0182 -0.0006  0.0000  0.0000  0.0338
                                        -0.0095 -0.0044 -0.0050
               ( 50.28%)   0.7091* C 10 s( 40.72%)p 1.45( 59.16%)d 0.00(  0.11%)
                                        -0.0000  0.6380  0.0120 -0.0016 -0.6761
                                        -0.0176  0.0040  0.0000  0.0000  0.0000
                                         0.3653 -0.0268 -0.0020  0.0000  0.0000
                                        -0.0195 -0.0126  0.0000  0.0000  0.0165
                                         0.0171  0.0007  0.0066
  21. (1.83606) BD ( 2) C  9- C 10       
               ( 51.67%)   0.7188* C  9 s(  0.00%)p 1.00( 99.94%)d 0.00(  0.06%)
                                         0.0000  0.0000  0.0000  0.0000  0.0000
                                         0.0000  0.0000  0.9994 -0.0220  0.0096
                                         0.0000  0.0000  0.0000  0.0237  0.0071
                                         0.0000  0.0000 -0.0057  0.0001  0.0000
                                         0.0000  0.0000  0.0000
               ( 48.33%)   0.6952* C 10 s(  0.00%)p 1.00( 99.92%)d 0.00(  0.08%)
                                         0.0000  0.0000  0.0000  0.0000  0.0000
                                         0.0000  0.0000  0.9993 -0.0179  0.0153
                                         0.0000  0.0000  0.0000 -0.0191 -0.0087
                                         0.0000  0.0000  0.0175 -0.0052  0.0000
                                         0.0000  0.0000  0.0000
  22. (1.97708) BD ( 1) C  9- H 17       
               ( 62.09%)   0.7880* C  9 s( 29.34%)p 2.41( 70.60%)d 0.00(  0.06%)
                                         0.0003 -0.5413  0.0190  0.0024  0.6984
                                        -0.0029 -0.0006  0.0000  0.0000  0.0000
                                         0.4672 -0.0048 -0.0015  0.0000  0.0000
                                        -0.0087 -0.0181  0.0000  0.0000 -0.0112
                                        -0.0078 -0.0046  0.0031
               ( 37.91%)   0.6157* H 17 s( 99.84%)p 0.00(  0.16%)
                                        -0.9992  0.0014 -0.0003 -0.0260 -0.0216
                                         0.0000  0.0000 -0.0162 -0.0156
  23. (1.98139) BD ( 1) C 10- H 18       
               ( 61.29%)   0.7829* C 10 s( 30.73%)p 2.25( 69.19%)d 0.00(  0.08%)
                                         0.0004 -0.5540  0.0208  0.0007 -0.0752
                                         0.0106  0.0016  0.0000  0.0000  0.0000
                                         0.8282 -0.0105 -0.0053  0.0000  0.0000
                                         0.0065  0.0038  0.0000  0.0000 -0.0003
                                        -0.0108 -0.0233  0.0089
               ( 38.71%)   0.6222* H 18 s( 99.84%)p 0.00(  0.16%)
                                        -0.9992  0.0021 -0.0005 -0.0025  0.0014
                                         0.0000  0.0000 -0.0386 -0.0121
  24. (1.99900) CR ( 1) C  1             s(100.00%)p 0.00(  0.00%)
                                         1.0000  0.0001 -0.0000 -0.0000  0.0002
                                        -0.0000  0.0000  0.0000  0.0000  0.0000
                                         0.0001  0.0000  0.0000  0.0000  0.0000
                                         0.0000 -0.0000  0.0000  0.0000  0.0000
                                        -0.0000 -0.0000  0.0000
  25. (1.99899) CR ( 1) C  2             s(100.00%)p 0.00(  0.00%)
                                         1.0000  0.0001 -0.0000 -0.0000  0.0003
                                        -0.0000 -0.0000  0.0000  0.0000  0.0000
                                        -0.0002  0.0000  0.0000  0.0000  0.0000
                                        -0.0000 -0.0000  0.0000  0.0000  0.0000
                                         0.0000  0.0000 -0.0000
  26. (1.99898) CR ( 1) C  3             s(100.00%)p 0.00(  0.00%)
                                         1.0000  0.0003 -0.0000  0.0000 -0.0001
                                        -0.0000  0.0000  0.0000  0.0000  0.0000
                                        -0.0003  0.0000  0.0000  0.0000  0.0000
                                        -0.0000  0.0000  0.0000  0.0000  0.0000
                                         0.0000  0.0000 -0.0000
  27. (1.99923) CR ( 1) N  4             s(100.00%)
                                         1.0000  0.0001 -0.0000 -0.0000  0.0000
                                        -0.0000  0.0000  0.0000  0.0000  0.0000
                                         0.0000 -0.0000 -0.0000  0.0000  0.0000
                                        -0.0000 -0.0000  0.0000  0.0000  0.0000
                                        -0.0000  0.0000  0.0000
  28. (1.99892) CR ( 1) B  5             s(100.00%)p 0.00(  0.00%)
                                         1.0000  0.0002 -0.0000  0.0000  0.0000
                                        -0.0000 -0.0000  0.0000  0.0000  0.0000
                                        -0.0003  0.0000  0.0000  0.0000  0.0000
                                         0.0000  0.0000  0.0000  0.0000 -0.0000
                                         0.0000 -0.0000  0.0000
  29. (1.99893) CR ( 1) C  6             s(100.00%)p 0.00(  0.00%)
                                         1.0000  0.0000 -0.0000 -0.0000  0.0000
                                        -0.0000 -0.0000  0.0000  0.0000  0.0000
                                         0.0003 -0.0000 -0.0000  0.0000  0.0000
                                         0.0000  0.0000  0.0000  0.0000 -0.0000
                                        -0.0000 -0.0000  0.0000
  30. (1.99893) CR ( 1) C  7             s(100.00%)p 0.00(  0.00%)
                                         1.0000  0.0000 -0.0000 -0.0000 -0.0000
                                         0.0000  0.0000  0.0000  0.0000  0.0000
                                         0.0003 -0.0000 -0.0000  0.0000  0.0000
                                        -0.0000 -0.0000  0.0000  0.0000 -0.0000
                                        -0.0000 -0.0000  0.0000
  31. (1.99900) CR ( 1) C  8             s(100.00%)p 0.00(  0.00%)
                                         1.0000  0.0001 -0.0000 -0.0000 -0.0002
                                         0.0000 -0.0000  0.0000  0.0000  0.0000
                                         0.0001  0.0000  0.0000  0.0000  0.0000
                                        -0.0000  0.0000  0.0000  0.0000  0.0000
                                        -0.0000 -0.0000  0.0000
  32. (1.99899) CR ( 1) C  9             s(100.00%)p 0.00(  0.00%)
                                         1.0000  0.0001 -0.0000 -0.0000 -0.0003
                                         0.0000  0.0000  0.0000  0.0000  0.0000
                                        -0.0002  0.0000  0.0000  0.0000  0.0000
                                         0.0000  0.0000  0.0000  0.0000  0.0000
                                         0.0000  0.0000 -0.0000
  33. (1.99898) CR ( 1) C 10             s(100.00%)p 0.00(  0.00%)
                                         1.0000  0.0003 -0.0000  0.0000  0.0001
                                         0.0000 -0.0000  0.0000  0.0000  0.0000
                                        -0.0003  0.0000  0.0000  0.0000  0.0000
                                         0.0000 -0.0000  0.0000  0.0000  0.0000
                                         0.0000  0.0000 -0.0000
  34. (1.48234) LP ( 1) N  4             s(  0.00%)p 1.00( 99.99%)d 0.00(  0.01%)
                                         0.0000  0.0000  0.0000  0.0000  0.0000
                                         0.0000  0.0000  0.9998  0.0180  0.0066
                                         0.0000  0.0000  0.0000 -0.0000 -0.0000
                                         0.0000  0.0000 -0.0076  0.0028  0.0000
                                         0.0000  0.0000  0.0000
  35. (0.47832) LP*( 1) B  5             s(  0.00%)p 1.00( 99.99%)d 0.00(  0.01%)
                                         0.0000  0.0000  0.0000  0.0000  0.0000
                                         0.0000  0.0000  0.9999  0.0004  0.0095
                                         0.0000  0.0000  0.0000  0.0000  0.0000
                                         0.0000  0.0000  0.0029 -0.0090  0.0000
                                         0.0000  0.0000  0.0000
  36. (0.00592) RY*( 1) C  1             s(  0.26%)p99.99( 92.91%)d25.88(  6.82%)
                                        -0.0000  0.0222  0.0341 -0.0313 -0.0291
                                        -0.8397  0.0366  0.0000  0.0000  0.0000
                                        -0.0119 -0.4692 -0.0400  0.0000  0.0000
                                         0.0803 -0.1318  0.0000  0.0000  0.1231
                                        -0.0086 -0.0757  0.1532
  37. (0.00300) RY*( 2) C  1             s(  0.70%)p99.99( 91.33%)d11.45(  7.97%)
                                        -0.0000 -0.0023  0.0825 -0.0123  0.0138
                                        -0.4765 -0.0446  0.0000  0.0000  0.0000
                                        -0.0398  0.8207  0.0948  0.0000  0.0000
                                        -0.0504 -0.1809  0.0000  0.0000 -0.0143
                                         0.0789  0.0040 -0.1950
  38. (0.00097) RY*( 3) C  1             s(  0.00%)p 1.00( 38.34%)d 1.61( 61.66%)
                                         0.0000  0.0000  0.0000  0.0000  0.0000
                                         0.0000  0.0000  0.0219  0.6171 -0.0456
                                         0.0000  0.0000  0.0000  0.2277 -0.0674
                                         0.0000  0.0000 -0.6393  0.3893  0.0000
                                         0.0000  0.0000  0.0000
[...]
                           0.077%  H 12 s( 40.19%)p 1.49( 59.81%)
                           0.064%  H 13 s( 58.20%)p 0.72( 41.80%)
   6. (2.00000)  91.5964%  BD ( 2) C  2- C  3       
                           3.515%  C  1 s(  0.00%)p 1.00( 99.31%)d 0.01(  0.69%)
                          48.172%  C  2 s(  0.00%)p 1.00( 99.94%)d 0.00(  0.06%)
                          43.432%  C  3 s(  0.00%)p 1.00( 99.92%)d 0.00(  0.08%)
                           0.650%  N  4 s(  0.00%)p 1.00( 96.23%)d 0.04(  3.77%)
                           1.463%  B  5 s(  0.00%)p 1.00( 99.33%)d 0.01(  0.67%)
                           1.914%  C  6 s(  0.00%)p 1.00( 99.84%)d 0.00(  0.16%)
                           0.087%  C  7 s(  0.00%)p 1.00( 98.43%)d 0.02(  1.57%)
                           0.389%  C  8 s(  0.00%)p 1.00( 99.97%)d 0.00(  0.03%)
                           0.029%  C  9 s(  0.00%)p 1.00( 97.47%)d 0.03(  2.53%)
                           0.325%  C 10 s(  0.00%)p 1.00( 99.04%)d 0.01(  0.96%)
                           0.011%  H 12 s(  0.00%)p 1.00(100.00%)
                           0.010%  H 13 s(  0.00%)p 1.00(100.00%)
   7. (2.00000)  98.8484%  BD ( 1) C  2- H 12       
                           0.166%  C  1 s(  1.51%)p63.33( 95.63%)d 1.89(  2.86%)
                          61.425%  C  2 s( 26.90%)p 2.72( 73.04%)d 0.00(  0.06%)
                           0.453%  C  3 s(  2.71%)p35.15( 95.35%)d 0.71(  1.94%)
                           0.206%  N  4 s( 39.94%)p 1.48( 59.13%)d 0.02(  0.93%)
                           0.035%  B  5 s( 19.50%)p 3.90( 76.05%)d 0.23(  4.45%)
                           0.123%  C  6 s( 37.00%)p 1.65( 61.07%)d 0.05(  1.93%)
                           0.013%  C 10 s( 26.81%)p 2.69( 72.18%)d 0.04(  1.01%)
                           0.040%  H 11 s( 94.82%)p 0.05(  5.18%)
                          37.470%  H 12 s( 99.84%)p 0.00(  0.16%)
                           0.050%  H 13 s( 96.96%)p 0.03(  3.04%)
                           0.011%  H 14 s( 90.35%)p 0.11(  9.65%)
   8. (2.00000)  99.1239%  BD ( 1) C  3- N  4       
                           0.166%  C  2 s(  4.85%)p18.36( 89.05%)d 1.26(  6.10%)
                          35.640%  C  3 s( 26.59%)p 2.75( 73.23%)d 0.01(  0.18%)
                          63.556%  N  4 s( 27.94%)p 2.58( 71.98%)d 0.00(  0.08%)
                           0.167%  B  5 s( 11.27%)p 7.19( 80.97%)d 0.69(  7.76%)
                           0.036%  C  7 s( 13.13%)p 5.37( 70.53%)d 1.24( 16.34%)
                           0.068%  C  9 s( 27.98%)p 2.37( 66.32%)d 0.20(  5.70%)
                           0.206%  C 10 s(  0.82%)p99.99( 91.74%)d 9.13(  7.44%)
                           0.081%  H 12 s( 94.15%)p 0.06(  5.85%)
                           0.013%  H 13 s(  3.07%)p31.53( 96.93%)
                           0.032%  H 18 s( 98.05%)p 0.02(  1.95%)
   9. (2.00000)  99.0663%  BD ( 1) C  3- H 13       
                           0.168%  C  1 s( 36.20%)p 1.72( 62.34%)d 0.04(  1.46%)
                           0.240%  C  2 s(  1.31%)p73.56( 96.39%)d 1.75(  2.30%)
                          60.755%  C  3 s( 29.43%)p 2.40( 70.50%)d 0.00(  0.08%)
                           0.098%  N  4 s( 22.47%)p 3.04( 68.39%)d 0.41(  9.14%)
                           0.249%  B  5 s( 24.47%)p 3.06( 74.98%)d 0.02(  0.55%)
                           0.045%  C 10 s( 84.10%)p 0.15( 12.33%)d 0.04(  3.57%)
                           0.039%  H 12 s( 96.58%)p 0.04(  3.42%)
                          38.346%  H 13 s( 99.83%)p 0.00(  0.17%)
                           0.023%  H 18 s( 86.94%)p 0.15( 13.06%)
  10. (2.00000)  98.1340%  BD ( 1) N  4- B  5       
                           0.405%  C  3 s(  2.09%)p44.60( 93.24%)d 2.23(  4.67%)
                          78.509%  N  4 s( 34.50%)p 1.90( 65.44%)d 0.00(  0.05%)
                          19.792%  B  5 s( 25.63%)p 2.89( 74.04%)d 0.01(  0.34%)
                           0.136%  C  6 s( 10.16%)p 7.80( 79.27%)d 1.04( 10.57%)
                           0.136%  C  7 s( 10.16%)p 7.80( 79.27%)d 1.04( 10.57%)
                           0.405%  C 10 s(  2.09%)p44.60( 93.24%)d 2.23(  4.67%)
                           0.187%  H 13 s( 99.21%)p 0.01(  0.79%)
                           0.101%  H 14 s( 95.64%)p 0.05(  4.36%)
                           0.101%  H 15 s( 95.64%)p 0.05(  4.36%)
                           0.187%  H 18 s( 99.21%)p 0.01(  0.79%)
  11. (2.00000)  99.1239%  BD ( 1) N  4- C 10       
                           0.068%  C  2 s( 27.98%)p 2.37( 66.32%)d 0.20(  5.70%)
                           0.206%  C  3 s(  0.82%)p99.99( 91.74%)d 9.13(  7.44%)
                          63.556%  N  4 s( 27.94%)p 2.58( 71.98%)d 0.00(  0.08%)
                           0.167%  B  5 s( 11.27%)p 7.19( 80.97%)d 0.69(  7.76%)
                           0.036%  C  6 s( 13.13%)p 5.37( 70.53%)d 1.24( 16.34%)
                           0.166%  C  9 s(  4.85%)p18.36( 89.05%)d 1.26(  6.10%)
                          35.640%  C 10 s( 26.59%)p 2.75( 73.23%)d 0.01(  0.18%)
                           0.032%  H 13 s( 98.05%)p 0.02(  1.95%)
                           0.081%  H 17 s( 94.15%)p 0.06(  5.85%)
                           0.013%  H 18 s(  3.07%)p31.53( 96.93%)
  12. (2.00000)  98.2531%  BD ( 1) B  5- C  6       
                           0.474%  C  1 s(  0.47%)p99.99( 96.73%)d 6.01(  2.80%)
                           0.030%  C  2 s( 54.16%)p 0.79( 42.53%)d 0.06(  3.31%)
                           0.017%  C  3 s( 42.03%)p 1.32( 55.68%)d 0.05(  2.29%)
                           0.124%  N  4 s( 11.86%)p 6.88( 81.63%)d 0.55(  6.50%)
                          32.614%  B  5 s( 34.09%)p 1.93( 65.83%)d 0.00(  0.08%)
                          65.803%  C  6 s( 34.66%)p 1.88( 65.20%)d 0.00(  0.14%)
                           0.154%  C  7 s( 11.47%)p 6.76( 77.53%)d 0.96( 11.00%)
                           0.082%  C  8 s( 38.36%)p 1.45( 55.67%)d 0.16(  5.97%)
                           0.020%  C  9 s( 66.94%)p 0.32( 21.26%)d 0.18( 11.79%)
                           0.183%  C 10 s( 36.44%)p 1.69( 61.46%)d 0.06(  2.10%)
                           0.342%  H 11 s( 98.07%)p 0.02(  1.93%)
                           0.113%  H 14 s( 56.19%)p 0.78( 43.81%)
                           0.018%  H 15 s( 92.39%)p 0.08(  7.61%)
  13. (2.00000)  98.2531%  BD ( 1) B  5- C  7       
                           0.082%  C  1 s( 38.36%)p 1.45( 55.67%)d 0.16(  5.97%)
                           0.020%  C  2 s( 66.94%)p 0.32( 21.26%)d 0.18( 11.79%)
                           0.183%  C  3 s( 36.44%)p 1.69( 61.46%)d 0.06(  2.10%)
                           0.124%  N  4 s( 11.86%)p 6.88( 81.63%)d 0.55(  6.50%)
                          32.614%  B  5 s( 34.09%)p 1.93( 65.83%)d 0.00(  0.08%)
                           0.154%  C  6 s( 11.47%)p 6.76( 77.53%)d 0.96( 11.00%)
                          65.803%  C  7 s( 34.66%)p 1.88( 65.20%)d 0.00(  0.14%)
                           0.474%  C  8 s(  0.47%)p99.99( 96.73%)d 6.01(  2.80%)
                           0.030%  C  9 s( 54.16%)p 0.79( 42.53%)d 0.06(  3.31%)
                           0.017%  C 10 s( 42.03%)p 1.32( 55.68%)d 0.05(  2.29%)
                           0.018%  H 14 s( 92.39%)p 0.08(  7.61%)
                           0.113%  H 15 s( 56.19%)p 0.78( 43.81%)
                           0.342%  H 16 s( 98.07%)p 0.02(  1.93%)
  14. (2.00000)  98.8598%  BD ( 1) C  6- H 14       
                           0.325%  C  1 s(  1.32%)p72.54( 95.83%)d 2.16(  2.85%)
                           0.226%  C  2 s( 43.73%)p 1.26( 54.89%)d 0.03(  1.38%)
                           0.016%  C  3 s( 47.89%)p 1.04( 49.56%)d 0.05(  2.55%)
                           0.053%  N  4 s( 37.94%)p 1.61( 61.16%)d 0.02(  0.90%)
                           0.315%  B  5 s(  0.26%)p99.99( 92.12%)d29.85(  7.63%)
                          61.318%  C  6 s( 24.64%)p 3.06( 75.28%)d 0.00(  0.08%)
                           0.018%  C  7 s( 48.49%)p 1.01( 48.76%)d 0.06(  2.75%)
                           0.017%  C 10 s( 35.89%)p 1.62( 58.04%)d 0.17(  6.08%)
                           0.092%  H 11 s( 98.74%)p 0.01(  1.26%)
                           0.015%  H 12 s( 93.31%)p 0.07(  6.69%)
                          37.588%  H 14 s( 99.86%)p 0.00(  0.14%)
  15. (2.00000)  99.0647%  BD ( 1) C  7- C  8       
                           0.229%  B  5 s(  3.52%)p24.16( 85.05%)d 3.25( 11.43%)
                           0.035%  C  6 s( 40.02%)p 1.21( 48.37%)d 0.29( 11.61%)
                          49.259%  C  7 s( 30.60%)p 2.26( 69.23%)d 0.01(  0.17%)
                          49.947%  C  8 s( 34.10%)p 1.93( 65.77%)d 0.00(  0.13%)
                           0.227%  C  9 s(  0.49%)p99.99( 96.12%)d 6.95(  3.39%)
                           0.073%  H 15 s( 42.22%)p 1.37( 57.78%)
                           0.085%  H 16 s( 39.99%)p 1.50( 60.01%)
                           0.122%  H 17 s( 95.55%)p 0.05(  4.45%)
  16. (2.00000)  89.6178%  BD ( 2) C  7- C  8       
                           0.309%  C  1 s(  0.00%)p 1.00( 99.93%)d 0.00(  0.07%)
                           0.014%  C  3 s(  0.00%)p 1.00( 91.83%)d 0.09(  8.17%)
                           0.191%  N  4 s(  0.00%)p 1.00( 95.79%)d 0.04(  4.21%)
                           5.377%  B  5 s(  0.00%)p 1.00( 99.49%)d 0.01(  0.51%)
                           0.021%  C  6 s(  0.00%)p 1.00( 94.26%)d 0.06(  5.74%)
                          46.651%  C  7 s(  0.00%)p 1.00( 99.92%)d 0.00(  0.08%)
                          42.977%  C  8 s(  0.00%)p 1.00( 99.93%)d 0.00(  0.07%)
                           2.278%  C  9 s(  0.00%)p 1.00( 98.92%)d 0.01(  1.08%)
                           2.151%  C 10 s(  0.00%)p 1.00( 99.84%)d 0.00(  0.16%)
  17. (2.00000)  98.8598%  BD ( 1) C  7- H 15       
                           0.017%  C  3 s( 35.89%)p 1.62( 58.04%)d 0.17(  6.08%)
                           0.053%  N  4 s( 37.94%)p 1.61( 61.16%)d 0.02(  0.90%)
                           0.315%  B  5 s(  0.26%)p99.99( 92.12%)d29.85(  7.63%)
                           0.018%  C  6 s( 48.49%)p 1.01( 48.76%)d 0.06(  2.75%)
                          61.318%  C  7 s( 24.64%)p 3.06( 75.28%)d 0.00(  0.08%)
                           0.325%  C  8 s(  1.32%)p72.53( 95.83%)d 2.16(  2.85%)
                           0.226%  C  9 s( 43.73%)p 1.26( 54.89%)d 0.03(  1.38%)
                           0.016%  C 10 s( 47.89%)p 1.04( 49.56%)d 0.05(  2.55%)
                          37.588%  H 15 s( 99.86%)p 0.00(  0.14%)
                           0.092%  H 16 s( 98.74%)p 0.01(  1.26%)
                           0.015%  H 17 s( 93.31%)p 0.07(  6.69%)
  18. (2.00000)  98.7909%  BD ( 1) C  8- C  9       
                           0.029%  N  4 s( 53.91%)p 0.82( 44.23%)d 0.03(  1.86%)
                           0.024%  B  5 s(  8.49%)p 7.23( 61.43%)d 3.54( 30.08%)
                           0.253%  C  7 s(  1.04%)p89.99( 93.89%)d 4.86(  5.07%)
                          48.771%  C  8 s( 30.10%)p 2.32( 69.73%)d 0.01(  0.17%)
                          50.149%  C  9 s( 31.53%)p 2.17( 68.32%)d 0.00(  0.15%)
                           0.285%  C 10 s(  2.34%)p40.47( 94.90%)d 1.17(  2.75%)
                           0.169%  H 15 s( 95.29%)p 0.05(  4.71%)
                           0.068%  H 16 s( 15.65%)p 5.39( 84.35%)
                           0.073%  H 17 s( 38.33%)p 1.61( 61.67%)
                           0.167%  H 18 s( 98.09%)p 0.02(  1.91%)
  19. (2.00000)  99.1029%  BD ( 1) C  8- H 16       
                           0.010%  N  4 s( 25.75%)p 2.67( 68.66%)d 0.22(  5.60%)
                           0.216%  B  5 s( 34.33%)p 1.85( 63.59%)d 0.06(  2.09%)
                           0.182%  C  7 s(  0.79%)p99.99( 96.26%)d 3.70(  2.94%)
                          61.194%  C  8 s( 26.91%)p 2.71( 73.03%)d 0.00(  0.06%)
                           0.176%  C  9 s(  4.07%)p22.79( 92.84%)d 0.76(  3.09%)
                           0.151%  C 10 s( 36.42%)p 1.69( 61.56%)d 0.06(  2.01%)
                           0.062%  H 15 s( 96.36%)p 0.04(  3.64%)
                          37.938%  H 16 s( 99.84%)p 0.00(  0.16%)
                           0.047%  H 17 s( 95.85%)p 0.04(  4.15%)
                           0.011%  H 18 s( 98.08%)p 0.02(  1.92%)
  20. (2.00000)  98.9533%  BD ( 1) C  9- C 10       
                           0.183%  C  3 s( 27.53%)p 2.61( 71.93%)d 0.02(  0.54%)
                           0.155%  N  4 s(  8.18%)p10.50( 85.90%)d 0.72(  5.92%)
                           0.037%  B  5 s(  5.15%)p13.53( 69.66%)d 4.90( 25.20%)
                           0.238%  C  8 s(  0.18%)p99.99( 95.90%)d21.37(  3.92%)
                          49.281%  C  9 s( 32.01%)p 2.12( 67.83%)d 0.00(  0.16%)
                          49.829%  C 10 s( 36.88%)p 1.71( 63.01%)d 0.00(  0.11%)
                           0.101%  H 16 s( 93.39%)p 0.07(  6.61%)
                           0.077%  H 17 s( 40.19%)p 1.49( 59.81%)
                           0.064%  H 18 s( 58.20%)p 0.72( 41.80%)
  21. (2.00000)  91.5985%  BD ( 2) C  9- C 10       
                           0.389%  C  1 s(  0.00%)p 1.00( 99.97%)d 0.00(  0.03%)
                           0.029%  C  2 s(  0.00%)p 1.00( 97.44%)d 0.03(  2.56%)
                           0.323%  C  3 s(  0.00%)p 1.00( 99.04%)d 0.01(  0.96%)
                           0.649%  N  4 s(  0.00%)p 1.00( 96.22%)d 0.04(  3.78%)
                           1.463%  B  5 s(  0.00%)p 1.00( 99.34%)d 0.01(  0.66%)
                           0.087%  C  6 s(  0.00%)p 1.00( 98.43%)d 0.02(  1.57%)
                           1.914%  C  7 s(  0.00%)p 1.00( 99.84%)d 0.00(  0.16%)
                           3.515%  C  8 s(  0.00%)p 1.00( 99.31%)d 0.01(  0.69%)
                          48.176%  C  9 s(  0.00%)p 1.00( 99.94%)d 0.00(  0.06%)
                          43.430%  C 10 s(  0.00%)p 1.00( 99.92%)d 0.00(  0.08%)
                           0.011%  H 17 s(  0.00%)p 1.00(100.00%)
                           0.010%  H 18 s(  0.00%)p 1.00(100.00%)
  22. (2.00000)  98.8484%  BD ( 1) C  9- H 17       
                           0.013%  C  3 s( 26.81%)p 2.69( 72.18%)d 0.04(  1.01%)
                           0.206%  N  4 s( 39.94%)p 1.48( 59.13%)d 0.02(  0.93%)
                           0.035%  B  5 s( 19.50%)p 3.90( 76.05%)d 0.23(  4.45%)
                           0.123%  C  7 s( 37.00%)p 1.65( 61.07%)d 0.05(  1.93%)
                           0.166%  C  8 s(  1.51%)p63.33( 95.63%)d 1.89(  2.86%)
                          61.425%  C  9 s( 26.90%)p 2.72( 73.04%)d 0.00(  0.06%)
                           0.453%  C 10 s(  2.71%)p35.15( 95.35%)d 0.71(  1.94%)
                           0.011%  H 15 s( 90.35%)p 0.11(  9.65%)
                           0.040%  H 16 s( 94.82%)p 0.05(  5.18%)
                          37.470%  H 17 s( 99.84%)p 0.00(  0.16%)
                           0.050%  H 18 s( 96.96%)p 0.03(  3.04%)
  23. (2.00000)  99.0663%  BD ( 1) C 10- H 18       
                           0.045%  C  3 s( 84.10%)p 0.15( 12.33%)d 0.04(  3.57%)
                           0.098%  N  4 s( 22.47%)p 3.04( 68.39%)d 0.41(  9.14%)
                           0.249%  B  5 s( 24.47%)p 3.06( 74.98%)d 0.02(  0.55%)
                           0.168%  C  8 s( 36.20%)p 1.72( 62.34%)d 0.04(  1.46%)
                           0.240%  C  9 s(  1.31%)p73.56( 96.39%)d 1.75(  2.30%)
                          60.755%  C 10 s( 29.43%)p 2.40( 70.50%)d 0.00(  0.08%)
                           0.023%  H 13 s( 86.94%)p 0.15( 13.06%)
                           0.039%  H 17 s( 96.58%)p 0.04(  3.42%)
                          38.346%  H 18 s( 99.83%)p 0.00(  0.17%)
  24. (2.00000)  99.9498%  CR ( 1) C  1             
                          99.954%  C  1 s(100.00%)p 0.00(  0.00%)d 0.00(  0.00%)
                           0.014%  C  2 s( 19.96%)p 3.75( 74.81%)d 0.26(  5.23%)
                           0.018%  C  6 s( 15.23%)p 5.28( 80.33%)d 0.29(  4.45%)
  25. (2.00000)  99.9494%  CR ( 1) C  2             
                           0.016%  C  1 s( 18.20%)p 4.21( 76.63%)d 0.28(  5.17%)
                          99.954%  C  2 s(100.00%)p 0.00(  0.00%)d 0.00(  0.00%)
                           0.019%  C  3 s( 18.80%)p 4.12( 77.43%)d 0.20(  3.77%)
  26. (2.00000)  99.9491%  CR ( 1) C  3             
                           0.021%  C  2 s( 15.00%)p 5.44( 81.63%)d 0.23(  3.38%)
                          99.953%  C  3 s(100.00%)p 0.00(  0.00%)d 0.00(  0.00%)
  27. (2.00000)  99.9612%  CR ( 1) N  4             
                           0.012%  C  3 s( 17.19%)p 4.46( 76.60%)d 0.36(  6.22%)
                          99.963%  N  4 s(100.00%)p 0.00(  0.00%)d 0.00(  0.00%)
                           0.012%  C 10 s( 17.19%)p 4.46( 76.60%)d 0.36(  6.22%)
  28. (2.00000)  99.9459%  CR ( 1) B  5             
                          99.948%  B  5 s(100.00%)p 0.00(  0.00%)d 0.00(  0.00%)
                           0.010%  C  6 s( 18.66%)p 3.60( 67.18%)d 0.76( 14.17%)
                           0.010%  C  7 s( 18.66%)p 3.60( 67.18%)d 0.76( 14.17%)
  29. (2.00000)  99.9463%  CR ( 1) C  6             
                           0.019%  C  1 s( 17.64%)p 4.40( 77.69%)d 0.26(  4.66%)
                           0.018%  B  5 s( 13.49%)p 6.19( 83.46%)d 0.23(  3.05%)
                          99.952%  C  6 s( 99.99%)p 0.00(  0.00%)d 0.00(  0.00%)
  30. (2.00000)  99.9463%  CR ( 1) C  7             
                           0.018%  B  5 s( 13.49%)p 6.19( 83.46%)d 0.23(  3.05%)
                          99.952%  C  7 s( 99.99%)p 0.00(  0.00%)d 0.00(  0.00%)
                           0.019%  C  8 s( 17.64%)p 4.40( 77.69%)d 0.26(  4.66%)
  31. (2.00000)  99.9498%  CR ( 1) C  8             
                           0.018%  C  7 s( 15.23%)p 5.28( 80.33%)d 0.29(  4.45%)
                          99.954%  C  8 s(100.00%)p 0.00(  0.00%)d 0.00(  0.00%)
                           0.014%  C  9 s( 19.96%)p 3.75( 74.81%)d 0.26(  5.23%)
  32. (2.00000)  99.9494%  CR ( 1) C  9             
                           0.016%  C  8 s( 18.20%)p 4.21( 76.63%)d 0.28(  5.17%)
                          99.954%  C  9 s(100.00%)p 0.00(  0.00%)d 0.00(  0.00%)
                           0.019%  C 10 s( 18.80%)p 4.12( 77.43%)d 0.20(  3.77%)
  33. (2.00000)  99.9491%  CR ( 1) C 10             
                           0.021%  C  9 s( 15.00%)p 5.44( 81.63%)d 0.23(  3.38%)
                          99.953%  C 10 s(100.00%)p 0.00(  0.00%)d 0.00(  0.00%)
  34. (2.00000)  72.5439%  LP ( 1) N  4             
                           1.074%  C  1 s(  0.00%)p 1.00( 99.70%)d 0.00(  0.30%)
                           2.210%  C  2 s(  0.00%)p 1.00( 99.88%)d 0.00(  0.12%)
                           4.135%  C  3 s(  0.00%)p 1.00( 98.71%)d 0.01(  1.29%)
                          72.545%  N  4 s(  0.00%)p 1.00(100.00%)d 0.00(  0.00%)
                          10.344%  B  5 s(  0.00%)p 1.00( 99.74%)d 0.00(  0.26%)
                           1.128%  C  6 s(  0.00%)p 1.00( 99.64%)d 0.00(  0.36%)
                           1.128%  C  7 s(  0.00%)p 1.00( 99.64%)d 0.00(  0.36%)
                           1.074%  C  8 s(  0.00%)p 1.00( 99.70%)d 0.00(  0.30%)
                           2.213%  C  9 s(  0.00%)p 1.00( 99.88%)d 0.00(  0.12%)
                           4.139%  C 10 s(  0.00%)p 1.00( 98.72%)d 0.01(  1.28%)

 *******************************************************************************
Grid information in Angstroms:
 x:        101  min =  -6.000000 max =   6.000000
 y:        101  min =  -6.000000 max =   6.000000
 z:         68  min =  -4.000000 max =   4.000000
 Plotting NBOs for the following states:  0
 Range of NBOs for each state:  300
 Created directory /scratch/483097/qchem1411812/plots
 Total job time:  67.27s(wall), 523.71s(cpu) 
 Wed Jun 17 18:27:02 2026

        *************************************************************
        *                                                           *
        *  Thank you very much for using Q-Chem.  Have a nice day.  *
        *                                                           *
        *************************************************************


