[Molden Format]
[Atoms] Angs
 c       1                    6  2.403467501071e+00 -5.894240085337e-01  7.894223944534e-01
 c       2                    6  2.211814444461e+00  8.301929002567e-01  9.199748008375e-01
 c       3                    6  9.889624648683e-01  1.415381733653e+00  5.968639267519e-01
 n       4                    7 -3.727815191724e-02  5.867261947621e-01  2.699210465868e-01
 b       5                    5  1.547020176662e-02 -8.616212073186e-01  2.541437715734e-01
 c       6                    6  1.362685305392e+00 -1.493662385494e+00  5.248705259618e-01
 c       7                    6 -1.264966746228e+00 -9.866185672471e-01 -7.299197381747e-01
 c       8                    6 -2.697244391368e+00 -5.797662599221e-01 -3.934881108228e-01
 c       9                    6 -2.492461517708e+00  7.649196506570e-01 -4.915410987476e-01
 c      10                    6 -1.036516122366e+00  5.948534632095e-01 -8.483379539906e-01
 h      11                    1  3.435158592239e+00 -9.534006163738e-01  8.464742997946e-01
 h      12                    1  3.055247521628e+00  1.469239054357e+00  1.184943523072e+00
 h      13                    1  8.366593598134e-01  2.496942216985e+00  5.648242534963e-01
 h      14                    1  1.620354240011e+00 -2.547742004310e+00  3.684940760479e-01
 h      15                    1 -1.107486215821e+00 -1.626566462976e+00 -1.606918860903e+00
 h      16                    1 -3.589784986190e+00 -1.174972038456e+00 -1.663458765729e-01
 h      17                    1 -3.101870885745e+00  1.656642714269e+00 -3.137209455937e-01
 h      18                    1 -6.022106139037e-01  9.988756224824e-01 -1.769660033770e+00
[GTO]
1
 s           8
      6.665000000000e+03      6.915839628130e-04
      1.000000000000e+03      5.325796152934e-03
      2.280000000000e+02      2.706072104203e-02
      6.471000000000e+01      1.016568461408e-01
      2.106000000000e+01      2.745748236174e-01
      7.495000000000e+00      4.482943189238e-01
      2.797000000000e+00      2.849026107152e-01
      5.215000000000e-01      1.519485920608e-02
 s           8
      6.665000000000e+03     -2.932696526865e-04
      1.000000000000e+03     -2.318035473975e-03
      2.280000000000e+02     -1.149978603857e-02
      6.471000000000e+01     -4.682672700979e-02
      2.106000000000e+01     -1.284661687505e-01
      7.495000000000e+00     -3.012662724629e-01
      2.797000000000e+00     -2.556307023301e-01
      5.215000000000e-01      1.093793361012e+00
 s           1
      1.596000000000e-01      1.000000000000e+00
 s           1
      4.690000000000e-02      1.000000000000e+00
 p           3
      9.439000000000e+00      5.697925159004e-02
      2.002000000000e+00      3.132072115007e-01
      5.456000000000e-01      7.603767417375e-01
 p           1
      1.517000000000e-01      1.000000000000e+00
 p           1
      4.041000000000e-02      1.000000000000e+00
 d           1
      5.500000000000e-01      1.000000000000e+00
 d           1
      1.510000000000e-01      1.000000000000e+00

2
 s           8
      6.665000000000e+03      6.915839628130e-04
      1.000000000000e+03      5.325796152934e-03
      2.280000000000e+02      2.706072104203e-02
      6.471000000000e+01      1.016568461408e-01
      2.106000000000e+01      2.745748236174e-01
      7.495000000000e+00      4.482943189238e-01
      2.797000000000e+00      2.849026107152e-01
      5.215000000000e-01      1.519485920608e-02
 s           8
      6.665000000000e+03     -2.932696526865e-04
      1.000000000000e+03     -2.318035473975e-03
      2.280000000000e+02     -1.149978603857e-02
      6.471000000000e+01     -4.682672700979e-02
      2.106000000000e+01     -1.284661687505e-01
      7.495000000000e+00     -3.012662724629e-01
      2.797000000000e+00     -2.556307023301e-01
      5.215000000000e-01      1.093793361012e+00
 s           1
      1.596000000000e-01      1.000000000000e+00
 s           1
      4.690000000000e-02      1.000000000000e+00
 p           3
      9.439000000000e+00      5.697925159004e-02
      2.002000000000e+00      3.132072115007e-01
      5.456000000000e-01      7.603767417375e-01
 p           1
      1.517000000000e-01      1.000000000000e+00
 p           1
      4.041000000000e-02      1.000000000000e+00
 d           1
      5.500000000000e-01      1.000000000000e+00
 d           1
      1.510000000000e-01      1.000000000000e+00

3
 s           8
      6.665000000000e+03      6.915839628130e-04
      1.000000000000e+03      5.325796152934e-03
      2.280000000000e+02      2.706072104203e-02
      6.471000000000e+01      1.016568461408e-01
      2.106000000000e+01      2.745748236174e-01
      7.495000000000e+00      4.482943189238e-01
      2.797000000000e+00      2.849026107152e-01
      5.215000000000e-01      1.519485920608e-02
 s           8
      6.665000000000e+03     -2.932696526865e-04
      1.000000000000e+03     -2.318035473975e-03
      2.280000000000e+02     -1.149978603857e-02
      6.471000000000e+01     -4.682672700979e-02
      2.106000000000e+01     -1.284661687505e-01
      7.495000000000e+00     -3.012662724629e-01
      2.797000000000e+00     -2.556307023301e-01
      5.215000000000e-01      1.093793361012e+00
 s           1
      1.596000000000e-01      1.000000000000e+00
 s           1
      4.690000000000e-02      1.000000000000e+00
 p           3
      9.439000000000e+00      5.697925159004e-02
      2.002000000000e+00      3.132072115007e-01
      5.456000000000e-01      7.603767417375e-01
 p           1
      1.517000000000e-01      1.000000000000e+00
 p           1
      4.041000000000e-02      1.000000000000e+00
 d           1
      5.500000000000e-01      1.000000000000e+00
 d           1
      1.510000000000e-01      1.000000000000e+00

4
 s           8
      9.046000000000e+03      6.996174134255e-04
      1.357000000000e+03      5.386054629929e-03
      3.093000000000e+02      2.739102118906e-02
      8.773000000000e+01      1.031505919820e-01
      2.856000000000e+01      2.785706633174e-01
      1.021000000000e+01      4.482948494541e-01
      3.838000000000e+00      2.780859283953e-01
      7.466000000000e-01      1.543156123327e-02
 s           8
      9.046000000000e+03     -3.049900959534e-04
      1.357000000000e+03     -2.408026378508e-03
      3.093000000000e+02     -1.194444872518e-02
      8.773000000000e+01     -4.892599290902e-02
      2.856000000000e+01     -1.344727247250e-01
      1.021000000000e+01     -3.151125777001e-01
      3.838000000000e+00     -2.428578325496e-01
      7.466000000000e-01      1.094382206854e+00
 s           1
      2.248000000000e-01      1.000000000000e+00
 s           1
      6.124000000000e-02      1.000000000000e+00
 p           3
      1.355000000000e+01      5.890567677213e-02
      2.917000000000e+00      3.204611067143e-01
      7.973000000000e-01      7.530420617921e-01
 p           1
      2.185000000000e-01      1.000000000000e+00
 p           1
      5.611000000000e-02      1.000000000000e+00
 d           1
      8.170000000000e-01      1.000000000000e+00
 d           1
      2.300000000000e-01      1.000000000000e+00

5
 s           8
      4.570000000000e+03      6.955544180306e-04
      6.859000000000e+02      5.349572988100e-03
      1.565000000000e+02      2.711662870523e-02
      4.447000000000e+01      1.013150961206e-01
      1.448000000000e+01      2.718808293065e-01
      5.131000000000e+00      4.481159306152e-01
      1.898000000000e+00      2.899372621010e-01
      3.329000000000e-01      1.431283099861e-02
 s           8
      4.570000000000e+03     -2.812802240142e-04
      6.859000000000e+02     -2.219887811105e-03
      1.565000000000e+02     -1.101647150743e-02
      4.447000000000e+01     -4.434918985248e-02
      1.448000000000e+01     -1.209120479502e-01
      5.131000000000e+00     -2.807378995535e-01
      1.898000000000e+00     -2.660668087326e-01
      3.329000000000e-01      1.091784130514e+00
 s           1
      1.043000000000e-01      1.000000000000e+00
 s           1
      3.105000000000e-02      1.000000000000e+00
 p           3
      6.001000000000e+00      5.416586334015e-02
      1.241000000000e+00      3.023798901809e-01
      3.364000000000e-01      7.712922165481e-01
 p           1
      9.538000000000e-02      1.000000000000e+00
 p           1
      2.378000000000e-02      1.000000000000e+00
 d           1
      3.430000000000e-01      1.000000000000e+00
 d           1
      9.040000000000e-02      1.000000000000e+00

6
 s           8
      6.665000000000e+03      6.915839628130e-04
      1.000000000000e+03      5.325796152934e-03
      2.280000000000e+02      2.706072104203e-02
      6.471000000000e+01      1.016568461408e-01
      2.106000000000e+01      2.745748236174e-01
      7.495000000000e+00      4.482943189238e-01
      2.797000000000e+00      2.849026107152e-01
      5.215000000000e-01      1.519485920608e-02
 s           8
      6.665000000000e+03     -2.932696526865e-04
      1.000000000000e+03     -2.318035473975e-03
      2.280000000000e+02     -1.149978603857e-02
      6.471000000000e+01     -4.682672700979e-02
      2.106000000000e+01     -1.284661687505e-01
      7.495000000000e+00     -3.012662724629e-01
      2.797000000000e+00     -2.556307023301e-01
      5.215000000000e-01      1.093793361012e+00
 s           1
      1.596000000000e-01      1.000000000000e+00
 s           1
      4.690000000000e-02      1.000000000000e+00
 p           3
      9.439000000000e+00      5.697925159004e-02
      2.002000000000e+00      3.132072115007e-01
      5.456000000000e-01      7.603767417375e-01
 p           1
      1.517000000000e-01      1.000000000000e+00
 p           1
      4.041000000000e-02      1.000000000000e+00
 d           1
      5.500000000000e-01      1.000000000000e+00
 d           1
      1.510000000000e-01      1.000000000000e+00

7
 s           8
      6.665000000000e+03      6.915839628130e-04
      1.000000000000e+03      5.325796152934e-03
      2.280000000000e+02      2.706072104203e-02
      6.471000000000e+01      1.016568461408e-01
      2.106000000000e+01      2.745748236174e-01
      7.495000000000e+00      4.482943189238e-01
      2.797000000000e+00      2.849026107152e-01
      5.215000000000e-01      1.519485920608e-02
 s           8
      6.665000000000e+03     -2.932696526865e-04
      1.000000000000e+03     -2.318035473975e-03
      2.280000000000e+02     -1.149978603857e-02
      6.471000000000e+01     -4.682672700979e-02
      2.106000000000e+01     -1.284661687505e-01
      7.495000000000e+00     -3.012662724629e-01
      2.797000000000e+00     -2.556307023301e-01
      5.215000000000e-01      1.093793361012e+00
 s           1
      1.596000000000e-01      1.000000000000e+00
 s           1
      4.690000000000e-02      1.000000000000e+00
 p           3
      9.439000000000e+00      5.697925159004e-02
      2.002000000000e+00      3.132072115007e-01
      5.456000000000e-01      7.603767417375e-01
 p           1
      1.517000000000e-01      1.000000000000e+00
 p           1
      4.041000000000e-02      1.000000000000e+00
 d           1
      5.500000000000e-01      1.000000000000e+00
 d           1
      1.510000000000e-01      1.000000000000e+00

8
 s           8
      6.665000000000e+03      6.915839628130e-04
      1.000000000000e+03      5.325796152934e-03
      2.280000000000e+02      2.706072104203e-02
      6.471000000000e+01      1.016568461408e-01
      2.106000000000e+01      2.745748236174e-01
      7.495000000000e+00      4.482943189238e-01
      2.797000000000e+00      2.849026107152e-01
      5.215000000000e-01      1.519485920608e-02
 s           8
      6.665000000000e+03     -2.932696526865e-04
      1.000000000000e+03     -2.318035473975e-03
      2.280000000000e+02     -1.149978603857e-02
      6.471000000000e+01     -4.682672700979e-02
      2.106000000000e+01     -1.284661687505e-01
      7.495000000000e+00     -3.012662724629e-01
      2.797000000000e+00     -2.556307023301e-01
      5.215000000000e-01      1.093793361012e+00
 s           1
      1.596000000000e-01      1.000000000000e+00
 s           1
      4.690000000000e-02      1.000000000000e+00
 p           3
      9.439000000000e+00      5.697925159004e-02
      2.002000000000e+00      3.132072115007e-01
      5.456000000000e-01      7.603767417375e-01
 p           1
      1.517000000000e-01      1.000000000000e+00
 p           1
      4.041000000000e-02      1.000000000000e+00
 d           1
      5.500000000000e-01      1.000000000000e+00
 d           1
      1.510000000000e-01      1.000000000000e+00

9
 s           8
      6.665000000000e+03      6.915839628130e-04
      1.000000000000e+03      5.325796152934e-03
      2.280000000000e+02      2.706072104203e-02
      6.471000000000e+01      1.016568461408e-01
      2.106000000000e+01      2.745748236174e-01
      7.495000000000e+00      4.482943189238e-01
      2.797000000000e+00      2.849026107152e-01
      5.215000000000e-01      1.519485920608e-02
 s           8
      6.665000000000e+03     -2.932696526865e-04
      1.000000000000e+03     -2.318035473975e-03
      2.280000000000e+02     -1.149978603857e-02
      6.471000000000e+01     -4.682672700979e-02
      2.106000000000e+01     -1.284661687505e-01
      7.495000000000e+00     -3.012662724629e-01
      2.797000000000e+00     -2.556307023301e-01
      5.215000000000e-01      1.093793361012e+00
 s           1
      1.596000000000e-01      1.000000000000e+00
 s           1
      4.690000000000e-02      1.000000000000e+00
 p           3
      9.439000000000e+00      5.697925159004e-02
      2.002000000000e+00      3.132072115007e-01
      5.456000000000e-01      7.603767417375e-01
 p           1
      1.517000000000e-01      1.000000000000e+00
 p           1
      4.041000000000e-02      1.000000000000e+00
 d           1
      5.500000000000e-01      1.000000000000e+00
 d           1
      1.510000000000e-01      1.000000000000e+00

10
 s           8
      6.665000000000e+03      6.915839628130e-04
      1.000000000000e+03      5.325796152934e-03
      2.280000000000e+02      2.706072104203e-02
      6.471000000000e+01      1.016568461408e-01
      2.106000000000e+01      2.745748236174e-01
      7.495000000000e+00      4.482943189238e-01
      2.797000000000e+00      2.849026107152e-01
      5.215000000000e-01      1.519485920608e-02
 s           8
      6.665000000000e+03     -2.932696526865e-04
      1.000000000000e+03     -2.318035473975e-03
      2.280000000000e+02     -1.149978603857e-02
      6.471000000000e+01     -4.682672700979e-02
      2.106000000000e+01     -1.284661687505e-01
      7.495000000000e+00     -3.012662724629e-01
      2.797000000000e+00     -2.556307023301e-01
      5.215000000000e-01      1.093793361012e+00
 s           1
      1.596000000000e-01      1.000000000000e+00
 s           1
      4.690000000000e-02      1.000000000000e+00
 p           3
      9.439000000000e+00      5.697925159004e-02
      2.002000000000e+00      3.132072115007e-01
      5.456000000000e-01      7.603767417375e-01
 p           1
      1.517000000000e-01      1.000000000000e+00
 p           1
      4.041000000000e-02      1.000000000000e+00
 d           1
      5.500000000000e-01      1.000000000000e+00
 d           1
      1.510000000000e-01      1.000000000000e+00

11
 s           3
      1.301000000000e+01      3.349872639000e-02
      1.962000000000e+00      2.348008011741e-01
      4.446000000000e-01      8.136829578829e-01
 s           1
      1.220000000000e-01      1.000000000000e+00
 s           1
      2.974000000000e-02      1.000000000000e+00
 p           1
      7.270000000000e-01      1.000000000000e+00
 p           1
      1.410000000000e-01      1.000000000000e+00

12
 s           3
      1.301000000000e+01      3.349872639000e-02
      1.962000000000e+00      2.348008011741e-01
      4.446000000000e-01      8.136829578829e-01
 s           1
      1.220000000000e-01      1.000000000000e+00
 s           1
      2.974000000000e-02      1.000000000000e+00
 p           1
      7.270000000000e-01      1.000000000000e+00
 p           1
      1.410000000000e-01      1.000000000000e+00

13
 s           3
      1.301000000000e+01      3.349872639000e-02
      1.962000000000e+00      2.348008011741e-01
      4.446000000000e-01      8.136829578829e-01
 s           1
      1.220000000000e-01      1.000000000000e+00
 s           1
      2.974000000000e-02      1.000000000000e+00
 p           1
      7.270000000000e-01      1.000000000000e+00
 p           1
      1.410000000000e-01      1.000000000000e+00

14
 s           3
      1.301000000000e+01      3.349872639000e-02
      1.962000000000e+00      2.348008011741e-01
      4.446000000000e-01      8.136829578829e-01
 s           1
      1.220000000000e-01      1.000000000000e+00
 s           1
      2.974000000000e-02      1.000000000000e+00
 p           1
      7.270000000000e-01      1.000000000000e+00
 p           1
      1.410000000000e-01      1.000000000000e+00

15
 s           3
      1.301000000000e+01      3.349872639000e-02
      1.962000000000e+00      2.348008011741e-01
      4.446000000000e-01      8.136829578829e-01
 s           1
      1.220000000000e-01      1.000000000000e+00
 s           1
      2.974000000000e-02      1.000000000000e+00
 p           1
      7.270000000000e-01      1.000000000000e+00
 p           1
      1.410000000000e-01      1.000000000000e+00

16
 s           3
      1.301000000000e+01      3.349872639000e-02
      1.962000000000e+00      2.348008011741e-01
      4.446000000000e-01      8.136829578829e-01
 s           1
      1.220000000000e-01      1.000000000000e+00
 s           1
      2.974000000000e-02      1.000000000000e+00
 p           1
      7.270000000000e-01      1.000000000000e+00
 p           1
      1.410000000000e-01      1.000000000000e+00

17
 s           3
      1.301000000000e+01      3.349872639000e-02
      1.962000000000e+00      2.348008011741e-01
      4.446000000000e-01      8.136829578829e-01
 s           1
      1.220000000000e-01      1.000000000000e+00
 s           1
      2.974000000000e-02      1.000000000000e+00
 p           1
      7.270000000000e-01      1.000000000000e+00
 p           1
      1.410000000000e-01      1.000000000000e+00

18
 s           3
      1.301000000000e+01      3.349872639000e-02
      1.962000000000e+00      2.348008011741e-01
      4.446000000000e-01      8.136829578829e-01
 s           1
      1.220000000000e-01      1.000000000000e+00
 s           1
      2.974000000000e-02      1.000000000000e+00
 p           1
      7.270000000000e-01      1.000000000000e+00
 p           1
      1.410000000000e-01      1.000000000000e+00


[5D]
[7F]
[9G]
[MO]
 Ene=  -15.592494
 Spin=  Alpha
 Occup=    2.000000
   1     0.0000549698717459
   2     0.0001053058808563
   3    -0.0036030416414410
   4    -0.0091020093172300
   5    -0.0000123015428127
   6     0.0000083614129413
   7     0.0000075848130364
   8     0.0005801664823634
   9    -0.0059916359135860
  10    -0.0005495634145534
  11     0.0038717334688128
  12     0.0038028057720667
  13     0.0011947226654949
  14    -0.0000098914276413
  15     0.0000042405775872
  16    -0.0000039451509973
  17     0.0000253229407673
  18    -0.0000297383428426
  19     0.0000767325682691
  20     0.0002914511493591
  21     0.0001921486080261
  22     0.0001240621358043
  23     0.0019877926648342
  24     0.0000139444119888
  25     0.0000492816583727
  26    -0.0056294208804707
  27     0.0120300431837193
  28    -0.0001263037542410
  29     0.0000312809232631
  30     0.0000094303353981
  31     0.0031850540054715
  32    -0.0076700046006574
  33     0.0006200082285185
  34    -0.0051075646679091
  35     0.0017900014163965
  36    -0.0011387770858536
  37     0.0000215078271840
  38     0.0000140537798800
  39    -0.0000041817914099
  40     0.0000898024836333
  41    -0.0000182850901427
  42    -0.0005763809290938
  43    -0.0001392833562478
  44     0.0007666170465762
  45    -0.0020776409583152
  46     0.0019094230216288
  47    -0.0003115855977620
  48    -0.0004724116889033
  49    -0.0022587792939060
  50    -0.0263443952328352
  51     0.0002697866184959
  52     0.0002117212675952
  53     0.0001624302590440
  54     0.0118271428196867
  55     0.0048740698626684
  56     0.0032413861885973
  57    -0.0019671071581012
  58     0.0049181962473932
  59    -0.0003903342707473
  60     0.0000329800770433
  61     0.0000793923661239
  62     0.0001094725762396
  63     0.0001226131676124
  64     0.0002720735279016
  65     0.0009608900704115
  66    -0.0001473556676631
  67    -0.0013971639399285
  68     0.0017690956912623
  69    -0.0050457601312198
  70    -1.0031743275138929
  71    -0.0055814172361119
  72     0.0270180240186443
  73     0.0150936629260435
  74    -0.0004294229560012
  75    -0.0005040696183708
  76     0.0005858289796956
  77     0.0004064252438601
  78     0.0024922502127172
  79    -0.0022400575044158
  80     0.0040837376517176
  81     0.0024476140245344
  82     0.0008822995229186
  83     0.0001517203313926
  84    -0.0001190790584809
  85    -0.0001291425255710
  86     0.0000228165457871
  87    -0.0002007266846588
  88    -0.0001057288820467
  89     0.0020205337479427
  90     0.0010002604817743
  91     0.0012106492906050
  92     0.0016583945099346
  93    -0.0002473601800447
  94    -0.0004575926846905
  95    -0.0002053572185109
  96     0.0040600520581167
  97     0.0000662548494871
  98    -0.0003079175058663
  99     0.0001259630644949
 100    -0.0016822786606938
 101     0.0018319553829809
 102     0.0000188554234031
 103     0.0006913869835339
 104     0.0002007392604723
 105     0.0000472029941019
 106     0.0000708646690619
 107    -0.0000202535629071
 108     0.0000858012671716
 109    -0.0000617397455841
 110     0.0001000144086323
 111    -0.0004217594757295
 112    -0.0003901617271905
 113     0.0005119909756548
 114    -0.0012829764575076
 115     0.0009227791972086
 116    -0.0000111401608791
 117     0.0000065411977132
 118    -0.0018878438012132
 119     0.0114541141655018
 120    -0.0000287500196722
 121     0.0000401193824335
 122     0.0000052462256596
 123    -0.0029101703704148
 124    -0.0008148776023600
 125    -0.0005298965986621
 126     0.0026916204538902
 127     0.0017902776243705
 128     0.0006157605984327
 129    -0.0000549198206441
 130     0.0000196665777208
 131    -0.0000070634123417
 132     0.0000025243600269
 133    -0.0000557382414884
 134     0.0001428722677293
 135    -0.0002752023274666
 136    -0.0001030097213404
 137    -0.0009225102208775
 138    -0.0005722377648388
 139    -0.0000112434480540
 140    -0.0000312168085246
 141     0.0032545050662530
 142    -0.0045470172229724
 143     0.0000462192827958
 144     0.0000862613334969
 145    -0.0000244528504563
 146     0.0011616784393884
 147     0.0026328071775972
 148     0.0015782487869598
 149    -0.0005567984161403
 150    -0.0008826620539102
 151    -0.0001995164211424
 152     0.0000062974666702
 153    -0.0000615057180893
 154     0.0000042775311425
 155    -0.0000505071809463
 156    -0.0000008446883215
 157    -0.0004180798201301
 158     0.0001374024845378
 159     0.0006378905651618
 160    -0.0001830771050603
 161     0.0006351550739855
 162    -0.0000898426276883
 163    -0.0001466851097824
 164     0.0023973894219633
 165     0.0021592935059921
 166    -0.0000626310521350
 167     0.0000347768916482
 168     0.0000028332596605
 169    -0.0000758710448212
 170     0.0015107296577225
 171    -0.0004836839459442
 172     0.0008658508448233
 173     0.0006423599006575
 174     0.0000614279389853
 175    -0.0000621405760679
 176     0.0000198857570353
 177     0.0000275448539643
 178     0.0000015709491972
 179     0.0000371265588474
 180     0.0000557596346043
 181     0.0000628908507070
 182    -0.0002747255808840
 183    -0.0004882986396130
 184    -0.0002216694075475
 185    -0.0000476606566438
 186    -0.0000697372511519
 187    -0.0039523715017381
 188    -0.0004990249724558
 189    -0.0000092194887523
 190    -0.0000074212426953
 191     0.0000330917760980
 192     0.0003445449936059
 193     0.0017928479925324
 194     0.0007150533461247
 195     0.0002259478155900
 196     0.0001210661891448
 197    -0.0000634166625998
 198    -0.0000890466417513
 199     0.0000672148008335
 200     0.0000112039532431
 201     0.0001414534603746
 202    -0.0000729718314490
 203     0.0002886097552104
 204     0.0001685339008165
 205    -0.0004394054420506
 206     0.0008553750915214
 207    -0.0004993055890446
 208     0.0002166231552955
 209     0.0003276500528511
 210    -0.0098177915328470
 211     0.0013525923754928
 212    -0.0002517802818772
 213    -0.0000894404877819
 214    -0.0003067311828819
 215    -0.0055358851144206
 216     0.0036983789202033
 217    -0.0082309949592104
 218     0.0004932398968990
 219    -0.0006990013226689
 220    -0.0007938922735534
 221    -0.0000232098037456
 222    -0.0000372665127011
 223     0.0000371062521446
 224    -0.0001860952263805
 225    -0.0000571336345577
 226    -0.0018439499765658
 227    -0.0031767766418878
 228     0.0017922293247415
 229     0.0011695977866786
 230     0.0009972254084328
 231    -0.0000092951456498
 232     0.0005962529743500
 233    -0.0007991432229926
 234     0.0000198338956609
 235     0.0000029574511696
 236    -0.0000016627505764
 237    -0.0002050897406098
 238    -0.0003197046069311
 239    -0.0001386720968668
 240     0.0000044308069280
 241     0.0011628896482176
 242     0.0006175939934874
 243    -0.0000466020334891
 244    -0.0000147432158964
 245    -0.0000215142867206
 246    -0.0005301300009537
 247    -0.0005317223858629
 248    -0.0002659191822177
 249     0.0002850671529269
 250    -0.0005665387494855
 251    -0.0017334275557404
 252    -0.0000430594927887
 253    -0.0001745587316486
 254    -0.0000295003987491
 255     0.0013044994930244
 256     0.0005582302451953
 257     0.0004040142494482
 258    -0.0000531900695463
 259    -0.0012430469049713
 260     0.0004499874889757
 261     0.0000134107019821
 262    -0.0000021873815676
 263    -0.0000077037511041
 264     0.0002355517643619
 265    -0.0000682214024357
 266    -0.0000938124122665
 267    -0.0000248037880044
 268     0.0015689741679807
 269    -0.0002821861382621
 270    -0.0000335465817237
 271    -0.0000301415511662
 272    -0.0000299680668951
 273    -0.0000318376420686
 274     0.0003008326052014
 275     0.0002036596160475
 276    -0.0000074522486374
 277     0.0007681269964356
 278     0.0005630938242754
 279    -0.0000266267967973
 280    -0.0000121587296276
 281     0.0000208945382935
 282     0.0001051805897188
 283     0.0001114508640204
 284    -0.0000798493304989
 285     0.0000314240187050
 286    -0.0008294805299603
 287     0.0002340630822454
 288     0.0000064712118307
 289     0.0000317400632234
 290     0.0000247433345044
 291    -0.0000859671914120
 292     0.0004319714685090
 293     0.0001729066023749
 294     0.0001918231262823
 295    -0.0031432272472872
 296    -0.0004542341031620
 297    -0.0000065380158352
 298    -0.0000281262489292
 299     0.0001579204934106
 300    -0.0007520910599152
 301     0.0005668299389753
 302    -0.0007754435898297
 Ene=  -11.288868
 Spin=  Alpha
 Occup=    2.000000
   1    -0.0000032697323220
   2    -0.0000053387130314
   3     0.0012850808741352
   4     0.0026388665731533
   5    -0.0000173334576884
   6    -0.0000102198471333
   7     0.0000056607759898
   8     0.0012536296521091
   9     0.0022603449952169
  10     0.0003971960122705
  11     0.0003817052518732
  12     0.0008506802279408
  13     0.0003403917199411
  14     0.0000058773408761
  15     0.0000095628044726
  16     0.0000115906592346
  17     0.0000010718215130
  18    -0.0000215893410881
  19    -0.0000220673526159
  20    -0.0002797424340124
  21     0.0001190151350991
  22    -0.0010578197739607
  23    -0.0004979495978436
  24    -0.0000825586425728
  25     0.0000140333680034
  26     0.0032278766527480
  27     0.0026489913235780
  28    -0.0000659612114776
  29     0.0000285857473196
  30    -0.0000203616152410
  31    -0.0033786857674547
  32     0.0033205226655526
  33    -0.0012774722319270
  34    -0.0013737302998621
  35     0.0021304644450088
  36    -0.0002106606686290
  37    -0.0000059062508247
  38     0.0000258527296720
  39    -0.0000049961877767
  40     0.0000032798304531
  41    -0.0000249328994853
  42     0.0001924406067408
  43     0.0005416131301086
  44    -0.0001516283929462
  45     0.0011840172957733
  46    -0.0004633684020195
  47    -0.0091790230993681
  48    -0.0000587067147648
  49    -0.0042871351471373
  50     0.0001326947988662
  51     0.0001513603891094
  52     0.0000764004950345
  53     0.0001193596548865
  54    -0.0037572682280884
  55     0.0009551650710092
  56     0.0000516670319888
  57    -0.0034939407051794
  58     0.0001350220398200
  59    -0.0013177448290387
  60    -0.0000270096717731
  61    -0.0001070613751546
  62    -0.0000932110512035
  63     0.0000000858674377
  64     0.0000827596052036
  65     0.0001371395233987
  66    -0.0004480442574916
  67    -0.0001016676767730
  68    -0.0011081364364892
  69     0.0022150882608049
  70     0.0001249421528162
  71     0.0005368263708605
  72    -0.0009662387157792
  73     0.0047368779201213
  74    -0.0003544209272954
  75     0.0000084981199565
  76    -0.0002192731559592
  77    -0.0007613391524224
  78    -0.0002154298659995
  79     0.0000370680804592
  80    -0.0029057656299227
  81    -0.0031540255856700
  82    -0.0007997408884885
  83    -0.0000038779243590
  84    -0.0001169328311502
  85    -0.0000225196303166
  86    -0.0000389687578656
  87    -0.0000701941710439
  88    -0.0009706918715822
  89    -0.0007987490891287
  90    -0.0003615974356002
  91     0.0000359089384555
  92     0.0003576081435855
  93    -0.0002773398128148
  94    -0.0004547281358205
  95     0.0041622499441479
  96     0.0007273552139604
  97     0.0001145382060474