[Molden Format]
[Atoms] Angs
 c       1                    6  2.241808682092e+00 -6.088322873221e-01  1.049837535119e+00
 c       2                    6  2.127839974128e+00  8.179776087494e-01  9.651198336270e-01
 c       3                    6  1.072051708030e+00  1.413061546898e+00  2.694995528893e-01
 n       4                    7  1.847460339463e-01  5.742142684722e-01 -3.126085854162e-01
 b       5                    5  1.763999700618e-01 -8.725108261410e-01 -2.652963451527e-01
 c       6                    6  1.327324346940e+00 -1.511771918637e+00  4.744962147570e-01
 c       7                    6 -1.231444783896e+00 -9.074048331649e-01 -1.085990847830e+00
 c       8                    6 -2.476919817089e+00 -6.596520076666e-01 -2.291997970409e-01
 c       9                    6 -2.343381772399e+00  6.977219152105e-01 -1.896615734883e-01
 c      10                    6 -1.093245524615e+00  6.854949736870e-01 -1.064893263637e+00
 h      11                    1  3.103149950158e+00 -9.973368776578e-01  1.606045083680e+00
 h      12                    1  2.876469264564e+00  1.453326512886e+00  1.443052054321e+00
 h      13                    1  9.455469089266e-01  2.495227643365e+00  1.667257209364e-01
 h      14                    1  1.518814450705e+00 -2.581652906400e+00  6.066732234825e-01
 h      15                    1 -1.350384814228e+00 -1.436410378010e+00 -2.041418625102e+00
 h      16                    1 -3.178404283130e+00 -1.351691401170e+00  2.442601172282e-01
 h      17                    1 -2.859632327251e+00  1.499016174580e+00  3.438802233415e-01
 h      18                    1 -1.040737966942e+00  1.291222792321e+00 -1.980520521712e+00
[GTO]
1
 s           8
      6.665000000000e+03      6.915839628130e-04
      1.000000000000e+03      5.325796152934e-03
      2.280000000000e+02      2.706072104203e-02
      6.471000000000e+01      1.016568461408e-01
      2.106000000000e+01      2.745748236174e-01
      7.495000000000e+00      4.482943189238e-01
      2.797000000000e+00      2.849026107152e-01
      5.215000000000e-01      1.519485920608e-02
 s           8
      6.665000000000e+03     -2.932696526865e-04
      1.000000000000e+03     -2.318035473975e-03
      2.280000000000e+02     -1.149978603857e-02
      6.471000000000e+01     -4.682672700979e-02
      2.106000000000e+01     -1.284661687505e-01
      7.495000000000e+00     -3.012662724629e-01
      2.797000000000e+00     -2.556307023301e-01
      5.215000000000e-01      1.093793361012e+00
 s           1
      1.596000000000e-01      1.000000000000e+00
 s           1
      4.690000000000e-02      1.000000000000e+00
 p           3
      9.439000000000e+00      5.697925159004e-02
      2.002000000000e+00      3.132072115007e-01
      5.456000000000e-01      7.603767417375e-01
 p           1
      1.517000000000e-01      1.000000000000e+00
 p           1
      4.041000000000e-02      1.000000000000e+00
 d           1
      5.500000000000e-01      1.000000000000e+00
 d           1
      1.510000000000e-01      1.000000000000e+00

2
 s           8
      6.665000000000e+03      6.915839628130e-04
      1.000000000000e+03      5.325796152934e-03
      2.280000000000e+02      2.706072104203e-02
      6.471000000000e+01      1.016568461408e-01
      2.106000000000e+01      2.745748236174e-01
      7.495000000000e+00      4.482943189238e-01
      2.797000000000e+00      2.849026107152e-01
      5.215000000000e-01      1.519485920608e-02
 s           8
      6.665000000000e+03     -2.932696526865e-04
      1.000000000000e+03     -2.318035473975e-03
      2.280000000000e+02     -1.149978603857e-02
      6.471000000000e+01     -4.682672700979e-02
      2.106000000000e+01     -1.284661687505e-01
      7.495000000000e+00     -3.012662724629e-01
      2.797000000000e+00     -2.556307023301e-01
      5.215000000000e-01      1.093793361012e+00
 s           1
      1.596000000000e-01      1.000000000000e+00
 s           1
      4.690000000000e-02      1.000000000000e+00
 p           3
      9.439000000000e+00      5.697925159004e-02
      2.002000000000e+00      3.132072115007e-01
      5.456000000000e-01      7.603767417375e-01
 p           1
      1.517000000000e-01      1.000000000000e+00
 p           1
      4.041000000000e-02      1.000000000000e+00
 d           1
      5.500000000000e-01      1.000000000000e+00
 d           1
      1.510000000000e-01      1.000000000000e+00

3
 s           8
      6.665000000000e+03      6.915839628130e-04
      1.000000000000e+03      5.325796152934e-03
      2.280000000000e+02      2.706072104203e-02
      6.471000000000e+01      1.016568461408e-01
      2.106000000000e+01      2.745748236174e-01
      7.495000000000e+00      4.482943189238e-01
      2.797000000000e+00      2.849026107152e-01
      5.215000000000e-01      1.519485920608e-02
 s           8
      6.665000000000e+03     -2.932696526865e-04
      1.000000000000e+03     -2.318035473975e-03
      2.280000000000e+02     -1.149978603857e-02
      6.471000000000e+01     -4.682672700979e-02
      2.106000000000e+01     -1.284661687505e-01
      7.495000000000e+00     -3.012662724629e-01
      2.797000000000e+00     -2.556307023301e-01
      5.215000000000e-01      1.093793361012e+00
 s           1
      1.596000000000e-01      1.000000000000e+00
 s           1
      4.690000000000e-02      1.000000000000e+00
 p           3
      9.439000000000e+00      5.697925159004e-02
      2.002000000000e+00      3.132072115007e-01
      5.456000000000e-01      7.603767417375e-01
 p           1
      1.517000000000e-01      1.000000000000e+00
 p           1
      4.041000000000e-02      1.000000000000e+00
 d           1
      5.500000000000e-01      1.000000000000e+00
 d           1
      1.510000000000e-01      1.000000000000e+00

4
 s           8
      9.046000000000e+03      6.996174134255e-04
      1.357000000000e+03      5.386054629929e-03
      3.093000000000e+02      2.739102118906e-02
      8.773000000000e+01      1.031505919820e-01
      2.856000000000e+01      2.785706633174e-01
      1.021000000000e+01      4.482948494541e-01
      3.838000000000e+00      2.780859283953e-01
      7.466000000000e-01      1.543156123327e-02
 s           8
      9.046000000000e+03     -3.049900959534e-04
      1.357000000000e+03     -2.408026378508e-03
      3.093000000000e+02     -1.194444872518e-02
      8.773000000000e+01     -4.892599290902e-02
      2.856000000000e+01     -1.344727247250e-01
      1.021000000000e+01     -3.151125777001e-01
      3.838000000000e+00     -2.428578325496e-01
      7.466000000000e-01      1.094382206854e+00
 s           1
      2.248000000000e-01      1.000000000000e+00
 s           1
      6.124000000000e-02      1.000000000000e+00
 p           3
      1.355000000000e+01      5.890567677213e-02
      2.917000000000e+00      3.204611067143e-01
      7.973000000000e-01      7.530420617921e-01
 p           1
      2.185000000000e-01      1.000000000000e+00
 p           1
      5.611000000000e-02      1.000000000000e+00
 d           1
      8.170000000000e-01      1.000000000000e+00
 d           1
      2.300000000000e-01      1.000000000000e+00

5
 s           8
      4.570000000000e+03      6.955544180306e-04
      6.859000000000e+02      5.349572988100e-03
      1.565000000000e+02      2.711662870523e-02
      4.447000000000e+01      1.013150961206e-01
      1.448000000000e+01      2.718808293065e-01
      5.131000000000e+00      4.481159306152e-01
      1.898000000000e+00      2.899372621010e-01
      3.329000000000e-01      1.431283099861e-02
 s           8
      4.570000000000e+03     -2.812802240142e-04
      6.859000000000e+02     -2.219887811105e-03
      1.565000000000e+02     -1.101647150743e-02
      4.447000000000e+01     -4.434918985248e-02
      1.448000000000e+01     -1.209120479502e-01
      5.131000000000e+00     -2.807378995535e-01
      1.898000000000e+00     -2.660668087326e-01
      3.329000000000e-01      1.091784130514e+00
 s           1
      1.043000000000e-01      1.000000000000e+00
 s           1
      3.105000000000e-02      1.000000000000e+00
 p           3
      6.001000000000e+00      5.416586334015e-02
      1.241000000000e+00      3.023798901809e-01
      3.364000000000e-01      7.712922165481e-01
 p           1
      9.538000000000e-02      1.000000000000e+00
 p           1
      2.378000000000e-02      1.000000000000e+00
 d           1
      3.430000000000e-01      1.000000000000e+00
 d           1
      9.040000000000e-02      1.000000000000e+00

6
 s           8
      6.665000000000e+03      6.915839628130e-04
      1.000000000000e+03      5.325796152934e-03
      2.280000000000e+02      2.706072104203e-02
      6.471000000000e+01      1.016568461408e-01
      2.106000000000e+01      2.745748236174e-01
      7.495000000000e+00      4.482943189238e-01
      2.797000000000e+00      2.849026107152e-01
      5.215000000000e-01      1.519485920608e-02
 s           8
      6.665000000000e+03     -2.932696526865e-04
      1.000000000000e+03     -2.318035473975e-03
      2.280000000000e+02     -1.149978603857e-02
      6.471000000000e+01     -4.682672700979e-02
      2.106000000000e+01     -1.284661687505e-01
      7.495000000000e+00     -3.012662724629e-01
      2.797000000000e+00     -2.556307023301e-01
      5.215000000000e-01      1.093793361012e+00
 s           1
      1.596000000000e-01      1.000000000000e+00
 s           1
      4.690000000000e-02      1.000000000000e+00
 p           3
      9.439000000000e+00      5.697925159004e-02
      2.002000000000e+00      3.132072115007e-01
      5.456000000000e-01      7.603767417375e-01
 p           1
      1.517000000000e-01      1.000000000000e+00
 p           1
      4.041000000000e-02      1.000000000000e+00
 d           1
      5.500000000000e-01      1.000000000000e+00
 d           1
      1.510000000000e-01      1.000000000000e+00

7
 s           8
      6.665000000000e+03      6.915839628130e-04
      1.000000000000e+03      5.325796152934e-03
      2.280000000000e+02      2.706072104203e-02
      6.471000000000e+01      1.016568461408e-01
      2.106000000000e+01      2.745748236174e-01
      7.495000000000e+00      4.482943189238e-01
      2.797000000000e+00      2.849026107152e-01
      5.215000000000e-01      1.519485920608e-02
 s           8
      6.665000000000e+03     -2.932696526865e-04
      1.000000000000e+03     -2.318035473975e-03
      2.280000000000e+02     -1.149978603857e-02
      6.471000000000e+01     -4.682672700979e-02
      2.106000000000e+01     -1.284661687505e-01
      7.495000000000e+00     -3.012662724629e-01
      2.797000000000e+00     -2.556307023301e-01
      5.215000000000e-01      1.093793361012e+00
 s           1
      1.596000000000e-01      1.000000000000e+00
 s           1
      4.690000000000e-02      1.000000000000e+00
 p           3
      9.439000000000e+00      5.697925159004e-02
      2.002000000000e+00      3.132072115007e-01
      5.456000000000e-01      7.603767417375e-01
 p           1
      1.517000000000e-01      1.000000000000e+00
 p           1
      4.041000000000e-02      1.000000000000e+00
 d           1
      5.500000000000e-01      1.000000000000e+00
 d           1
      1.510000000000e-01      1.000000000000e+00

8
 s           8
      6.665000000000e+03      6.915839628130e-04
      1.000000000000e+03      5.325796152934e-03
      2.280000000000e+02      2.706072104203e-02
      6.471000000000e+01      1.016568461408e-01
      2.106000000000e+01      2.745748236174e-01
      7.495000000000e+00      4.482943189238e-01
      2.797000000000e+00      2.849026107152e-01
      5.215000000000e-01      1.519485920608e-02
 s           8
      6.665000000000e+03     -2.932696526865e-04
      1.000000000000e+03     -2.318035473975e-03
      2.280000000000e+02     -1.149978603857e-02
      6.471000000000e+01     -4.682672700979e-02
      2.106000000000e+01     -1.284661687505e-01
      7.495000000000e+00     -3.012662724629e-01
      2.797000000000e+00     -2.556307023301e-01
      5.215000000000e-01      1.093793361012e+00
 s           1
      1.596000000000e-01      1.000000000000e+00
 s           1
      4.690000000000e-02      1.000000000000e+00
 p           3
      9.439000000000e+00      5.697925159004e-02
      2.002000000000e+00      3.132072115007e-01
      5.456000000000e-01      7.603767417375e-01
 p           1
      1.517000000000e-01      1.000000000000e+00
 p           1
      4.041000000000e-02      1.000000000000e+00
 d           1
      5.500000000000e-01      1.000000000000e+00
 d           1
      1.510000000000e-01      1.000000000000e+00

9
 s           8
      6.665000000000e+03      6.915839628130e-04
      1.000000000000e+03      5.325796152934e-03
      2.280000000000e+02      2.706072104203e-02
      6.471000000000e+01      1.016568461408e-01
      2.106000000000e+01      2.745748236174e-01
      7.495000000000e+00      4.482943189238e-01
      2.797000000000e+00      2.849026107152e-01
      5.215000000000e-01      1.519485920608e-02
 s           8
      6.665000000000e+03     -2.932696526865e-04
      1.000000000000e+03     -2.318035473975e-03
      2.280000000000e+02     -1.149978603857e-02
      6.471000000000e+01     -4.682672700979e-02
      2.106000000000e+01     -1.284661687505e-01
      7.495000000000e+00     -3.012662724629e-01
      2.797000000000e+00     -2.556307023301e-01
      5.215000000000e-01      1.093793361012e+00
 s           1
      1.596000000000e-01      1.000000000000e+00
 s           1
      4.690000000000e-02      1.000000000000e+00
 p           3
      9.439000000000e+00      5.697925159004e-02
      2.002000000000e+00      3.132072115007e-01
      5.456000000000e-01      7.603767417375e-01
 p           1
      1.517000000000e-01      1.000000000000e+00
 p           1
      4.041000000000e-02      1.000000000000e+00
 d           1
      5.500000000000e-01      1.000000000000e+00
 d           1
      1.510000000000e-01      1.000000000000e+00

10
 s           8
      6.665000000000e+03      6.915839628130e-04
      1.000000000000e+03      5.325796152934e-03
      2.280000000000e+02      2.706072104203e-02
      6.471000000000e+01      1.016568461408e-01
      2.106000000000e+01      2.745748236174e-01
      7.495000000000e+00      4.482943189238e-01
      2.797000000000e+00      2.849026107152e-01
      5.215000000000e-01      1.519485920608e-02
 s           8
      6.665000000000e+03     -2.932696526865e-04
      1.000000000000e+03     -2.318035473975e-03
      2.280000000000e+02     -1.149978603857e-02
      6.471000000000e+01     -4.682672700979e-02
      2.106000000000e+01     -1.284661687505e-01
      7.495000000000e+00     -3.012662724629e-01
      2.797000000000e+00     -2.556307023301e-01
      5.215000000000e-01      1.093793361012e+00
 s           1
      1.596000000000e-01      1.000000000000e+00
 s           1
      4.690000000000e-02      1.000000000000e+00
 p           3
      9.439000000000e+00      5.697925159004e-02
      2.002000000000e+00      3.132072115007e-01
      5.456000000000e-01      7.603767417375e-01
 p           1
      1.517000000000e-01      1.000000000000e+00
 p           1
      4.041000000000e-02      1.000000000000e+00
 d           1
      5.500000000000e-01      1.000000000000e+00
 d           1
      1.510000000000e-01      1.000000000000e+00

11
 s           3
      1.301000000000e+01      3.349872639000e-02
      1.962000000000e+00      2.348008011741e-01
      4.446000000000e-01      8.136829578829e-01
 s           1
      1.220000000000e-01      1.000000000000e+00
 s           1
      2.974000000000e-02      1.000000000000e+00
 p           1
      7.270000000000e-01      1.000000000000e+00
 p           1
      1.410000000000e-01      1.000000000000e+00

12
 s           3
      1.301000000000e+01      3.349872639000e-02
      1.962000000000e+00      2.348008011741e-01
      4.446000000000e-01      8.136829578829e-01
 s           1
      1.220000000000e-01      1.000000000000e+00
 s           1
      2.974000000000e-02      1.000000000000e+00
 p           1
      7.270000000000e-01      1.000000000000e+00
 p           1
      1.410000000000e-01      1.000000000000e+00

13
 s           3
      1.301000000000e+01      3.349872639000e-02
      1.962000000000e+00      2.348008011741e-01
      4.446000000000e-01      8.136829578829e-01
 s           1
      1.220000000000e-01      1.000000000000e+00
 s           1
      2.974000000000e-02      1.000000000000e+00
 p           1
      7.270000000000e-01      1.000000000000e+00
 p           1
      1.410000000000e-01      1.000000000000e+00

14
 s           3
      1.301000000000e+01      3.349872639000e-02
      1.962000000000e+00      2.348008011741e-01
      4.446000000000e-01      8.136829578829e-01
 s           1
      1.220000000000e-01      1.000000000000e+00
 s           1
      2.974000000000e-02      1.000000000000e+00
 p           1
      7.270000000000e-01      1.000000000000e+00
 p           1
      1.410000000000e-01      1.000000000000e+00

15
 s           3
      1.301000000000e+01      3.349872639000e-02
      1.962000000000e+00      2.348008011741e-01
      4.446000000000e-01      8.136829578829e-01
 s           1
      1.220000000000e-01      1.000000000000e+00
 s           1
      2.974000000000e-02      1.000000000000e+00
 p           1
      7.270000000000e-01      1.000000000000e+00
 p           1
      1.410000000000e-01      1.000000000000e+00

16
 s           3
      1.301000000000e+01      3.349872639000e-02
      1.962000000000e+00      2.348008011741e-01
      4.446000000000e-01      8.136829578829e-01
 s           1
      1.220000000000e-01      1.000000000000e+00
 s           1
      2.974000000000e-02      1.000000000000e+00
 p           1
      7.270000000000e-01      1.000000000000e+00
 p           1
      1.410000000000e-01      1.000000000000e+00

17
 s           3
      1.301000000000e+01      3.349872639000e-02
      1.962000000000e+00      2.348008011741e-01
      4.446000000000e-01      8.136829578829e-01
 s           1
      1.220000000000e-01      1.000000000000e+00
 s           1
      2.974000000000e-02      1.000000000000e+00
 p           1
      7.270000000000e-01      1.000000000000e+00
 p           1
      1.410000000000e-01      1.000000000000e+00

18
 s           3
      1.301000000000e+01      3.349872639000e-02
      1.962000000000e+00      2.348008011741e-01
      4.446000000000e-01      8.136829578829e-01
 s           1
      1.220000000000e-01      1.000000000000e+00
 s           1
      2.974000000000e-02      1.000000000000e+00
 p           1
      7.270000000000e-01      1.000000000000e+00
 p           1
      1.410000000000e-01      1.000000000000e+00


[5D]
[7F]
[9G]
[MO]
 Ene=  -15.596708
 Spin=  Alpha
 Occup=    2.000000
   1    -0.0000312629342400
   2    -0.0000638164357928
   3     0.0013498563005048
   4     0.0089689200067410
   5     0.0000129276960364
   6    -0.0000092382669478
   7     0.0000161481498859
   8    -0.0000349908655704
   9     0.0037804610549872
  10    -0.0000860413842475
  11    -0.0028713892016685
  12    -0.0040455284967865
  13    -0.0017616738383850
  14     0.0000056303072218
  15    -0.0000351153872583
  16     0.0000251518945493
  17    -0.0000193932555480
  18     0.0000317106768362
  19    -0.0001119540656585
  20     0.0000413700286438
  21    -0.0007611307723217
  22    -0.0001844820154859
  23    -0.0010812365693589
  24    -0.0000120162275245
  25    -0.0000395884492095
  26     0.0026093580018761
  27    -0.0098087525893632
  28     0.0000972805479749
  29    -0.0000270348247572
  30     0.0000862983910786
  31    -0.0004116511861271
  32     0.0046767667199302
  33    -0.0002296109697443
  34     0.0041826087012121
  35    -0.0012102771233530
  36     0.0026787401133201
  37    -0.0000361025827578
  38    -0.0000404772786367
  39     0.0000273247412474
  40    -0.0000862137060208
  41     0.0000285832363758
  42     0.0005216291525066
  43     0.0000335930067124
  44    -0.0006357531170126
  45     0.0009526327321088
  46    -0.0008685831013615
  47     0.0003448631921048
  48     0.0005186088715701
  49     0.0061058058426882
  50     0.0213001344945313
  51    -0.0002903881962273
  52    -0.0002327468877047
  53    -0.0001468452938669
  54    -0.0067421261484571
  55    -0.0060695862279453
  56    -0.0046313530951722
  57     0.0010753070982979
  58    -0.0038982407247567
  59     0.0007099305117387
  60    -0.0000413396472534
  61    -0.0000855830502315
  62    -0.0001819891853940
  63    -0.0001365432530813
  64    -0.0003002754047318
  65    -0.0009713951094276
  66     0.0004383371901403
  67     0.0022785360355389
  68    -0.0014591816995762
  69     0.0032817744277117
  70     1.0031758318628756
  71     0.0056258331425711
  72    -0.0261326288739735
  73    -0.0091850589147890
  74    -0.0001027510602438
  75     0.0006896376437320
  76     0.0001536531708413
  77     0.0017266686769660
  78    -0.0027537259039266
  79     0.0000835271308413
  80    -0.0005188584140644
  81    -0.0034869338778141
  82     0.0000142636058150
  83    -0.0001412698780570
  84     0.0001948516833416
  85     0.0001494470575983
  86    -0.0000217075387765
  87     0.0002464785953065
  88     0.0007324988466945
  89    -0.0020689383659623
  90    -0.0011221245290103
  91    -0.0017412569225145
  92    -0.0017819337134073
  93     0.0001720934901395
  94     0.0003327241554691
  95    -0.0015890237263835
  96    -0.0035255637347007
  97    -0.0001161078811410
  98     0.0002670086545556
  99    -0.0000607910704101
 100    -0.0002798922894930
 101    -0.0032269868173698
 102    -0.0004824729800579
 103     0.0002010978952822
 104     0.0001008564690208
 105     0.0001367558249252
 106    -0.0000088678116118
 107     0.0000650089940081
 108    -0.0001041300864903
 109     0.0000110837334365
 110    -0.0001761984680710
 111     0.0003806455711914
 112     0.0013122956146836
 113    -0.0011768540018000
 114     0.0019170048660478
 115    -0.0020439048018689
 116     0.0000038039999624
 117    -0.0000141001017527
 118     0.0006242008294813
 119    -0.0120311884475750
 120     0.0000215717612961
 121    -0.0000475077048781
 122     0.0000129754083684
 123     0.0017152055910617
 124     0.0009494452801972
 125     0.0011869058519012
 126    -0.0026622175790648
 127    -0.0019667589558539
 128    -0.0017137853565673
 129     0.0000348585228439
 130    -0.0000406209353698
 131     0.0000300304531472
 132     0.0000164087969262
 133     0.0000387152620885
 134    -0.0000534623231054
 135     0.0003598406626828
 136     0.0002097193371507
 137     0.0003862320381481
 138     0.0003703615649194
 139    -0.0000361773860559
 140    -0.0000517725873124
 141    -0.0030639169511298
 142     0.0060897095748823
 143    -0.0000348500997111
 144    -0.0001188628734602
 145     0.0000365663529291
 146    -0.0017114220659612
 147    -0.0016193085303952
 148    -0.0015952186960314
 149     0.0000174108568987
 150     0.0008648534834033
 151     0.0010205886677018
 152    -0.0000438346508813
 153     0.0000457290166899
 154    -0.0000037774736327
 155     0.0000653274665885
 156     0.0000332600564100
 157     0.0000319278569177
 158     0.0001995086614643
 159    -0.0003137726739597
 160    -0.0001611051371067
 161    -0.0009054850700390
 162     0.0001316384255072
 163     0.0002156235256441
 164    -0.0037905113342789
 165    -0.0013208284682536
 166     0.0000441998577001
 167    -0.0000275551090945
 168    -0.0000402821251501
 169    -0.0002365794950300
 170    -0.0032263922727942
 171     0.0004853847098695
 172    -0.0005911518388523
 173    -0.0000065568952497
 174     0.0003160847672141
 175     0.0000665955963509
 176     0.0000115330799178
 177    -0.0000191109361877
 178     0.0000054425808640
 179    -0.0000621848754840
 180     0.0001863453291521
 181    -0.0001872411614916
 182     0.0001054679521017
 183     0.0005944333952438
 184     0.0000727333593330
 185     0.0000167611654903
 186    -0.0000004701242076
 187     0.0045916242535689
 188     0.0002139946869311
 189    -0.0000526135119109
 190     0.0000062462754111
 191    -0.0000130330122473
 192    -0.0008196787597172
 193    -0.0033873602216143
 194    -0.0011657032697845
 195     0.0000145896370239
 196     0.0001071530588091
 197    -0.0001312158818687
 198     0.0000874642463086
 199     0.0000559161801279
 200    -0.0000267465953832
 201    -0.0001654257953535
 202     0.0000453458014045
 203    -0.0001933378475478
 204     0.0000954082080969
 205     0.0004342633605193
 206    -0.0012512507957068
 207     0.0004404194067624
 208    -0.0001599332303142
 209    -0.0002560446855040
 210     0.0086460041601590
 211    -0.0022698182186151
 212     0.0003682850710257
 213     0.0000794340207193
 214     0.0002077255802383
 215     0.0078645914693961
 216    -0.0038698754138936
 217     0.0064633965294613
 218     0.0005516123967799
 219     0.0011048606008682
 220     0.0001448209642963
 221     0.0000244236025692
 222     0.0000084490504381
 223    -0.0001024477033233
 224     0.0001540176885339
 225     0.0000206047225175
 226    -0.0001117752402174
 227     0.0036565815420585
 228    -0.0010570820039052
 229     0.0001499013158006
 230    -0.0024547240063616
 231     0.0000093450486761
 232    -0.0003276407012366
 233     0.0003339729393962
 234    -0.0000207916178015
 235     0.0000051642636112
 236    -0.0000134536999882
 237     0.0000471097601346
 238     0.0002762117284944
 239     0.0000141762994969
 240    -0.0000390461505346
 241    -0.0018085244469872
 242    -0.0007323996207410
 243     0.0000329090690193
 244     0.0000018183370818
 245     0.0000205758510479
 246     0.0005704033190175
 247     0.0004232566176414
 248     0.0003889681132909
 249    -0.0003224463998473
 250     0.0013059126097478
 251     0.0012724793066491
 252     0.0000456613505302
 253     0.0001993164792340
 254     0.0000216889298432
 255    -0.0009746299853992
 256    -0.0007232393440979
 257    -0.0006722985048966
 258     0.0000678712444224
 259     0.0005026442782975
 260    -0.0004908874771656
 261    -0.0000047218358651
 262     0.0000234481639197
 263    -0.0000093044828115
 264    -0.0000402589821792
 265    -0.0000623073407432
 266    -0.0000346299121029
 267     0.0000613619765589
 268    -0.0022727404170926
 269     0.0010100471807221
 270     0.0000522074043592
 271     0.0000311867118248
 272     0.0000146560061576
 273    -0.0000102098841756
 274    -0.0003071750950613
 275    -0.0005375942652116
 276     0.0000071904058861
 277    -0.0018437606720795
 278    -0.0001859467157454
 279     0.0000138633033229
 280     0.0000197336970284
 281    -0.0000331758575232
 282    -0.0003569183819947
 283    -0.0003344891609478
 284     0.0002081102919115
 285    -0.0000196763160796
 286     0.0019173747204982
 287    -0.0001639619988517
 288    -0.0000078422060848
 289    -0.0000288814576756
 290    -0.0000228641196887
 291     0.0002645289670066
 292    -0.0006188653220071
 293    -0.0003785122749283
 294    -0.0001302558336156
 295     0.0040642425234817
 296    -0.0000899917373714
 297    -0.0000312139113746
 298     0.0000532659985275
 299    -0.0001329416226475
 300     0.0011311049131930
 301    -0.0006195446134047
 302     0.0007970825463490
 Ene=  -11.286189
 Spin=  Alpha
 Occup=    2.000000
   1     0.0001048525135992
   2     0.0001611578714020
   3    -0.0067331435877184
   4     0.0037098879892810
   5     0.0000228194981699
   6    -0.0000202371522643
   7     0.0000000040310839
   8     0.0024063268754546
   9    -0.0052441556043625
  10     0.0016406277608572
  11     0.0002578966160607
  12    -0.0000318143839969
  13     0.0002802413946853
  14     0.0000477449752881
  15    -0.0000822532479534
  16     0.0000129536764471
  17    -0.0000073608134613
  18     0.0000182241104474
  19    -0.0001416595779282
  20     0.0000594253905630
  21     0.0005722123905787
  22    -0.0000236019062150
  23     0.0009278152663623
  24    -0.0011700672272283
  25    -0.0000819295599776
  26    -0.0061041775797819
  27     0.0040071190025049
  28     0.0000259022199241
  29     0.0000489836260907
  30     0.0000033088127883
  31     0.0051431828216179
  32    -0.0066736130802690
  33     0.0032926656027072
  34    -0.0002407653134006
  35     0.0019446048000284
  36    -0.0003306201473640
  37    -0.0000290069634621
  38    -0.0000241721056314
  39    -0.0000330824845097
  40    -0.0000740524882821
  41    -0.0000640553958693
  42    -0.0008906635294650
  43    -0.0008904332804443
  44     0.0011436171199953
  45    -0.0023650226810565
  46     0.0019380965483144
  47    -0.0971649177351278
  48    -0.0008072750043220
  49     0.0092468945285297
  50    -0.0081444901972551
  51     0.0001298987263461
  52     0.0000852198870874
  53     0.0000994241366007
  54     0.0085929640209888
  55    -0.0033013309746203
  56     0.0056515903735784
  57    -0.0023994764321728
  58     0.0022473382776588
  59    -0.0014816552778104
  60    -0.0000625297446187
  61    -0.0001534167402507
  62    -0.0000171083172787
  63    -0.0002337224257495
  64    -0.0000294500455540
  65    -0.0002341765644603
  66     0.0000759918286431
  67    -0.0017339878508247
  68    -0.0006542066823906
  69    -0.0024858531571457
  70     0.0000549448054419
  71     0.0003796062943670
  72     0.0036117350312228
  73     0.0144633190375818
  74    -0.0004031215013682
  75     0.0000016765186459
  76    -0.0002182609520244
  77     0.0010254890198367
  78     0.0011192143502635
  79     0.0013845908611362
  80     0.0050838029093031
  81    -0.0030417502093846
  82     0.0044582576794416
  83     0.0000072404162445
  84    -0.0000118779129855
  85    -0.0000144576187173
  86    -0.0000217528178024
  87    -0.0000500919199987
  88    -0.0002001767183938
  89    -0.0018425654941215
  90     0.0002190786802279
  91    -0.0013568883877566
  92     0.0004965326397153
  93    -0.0005432896008389
  94    -0.0008883966438402
  95     0.0031446406046478
  96     0.0009879622101364
  97     0.0000633367641227