[Molden Format]
[Atoms] Angs
 c       1                    6  2.386478467790e+00 -5.891650995675e-01  6.294795258278e-01
 c       2                    6  2.255633551267e+00  8.372093293836e-01  8.047693860920e-01
 c       3                    6  1.036737747241e+00  1.458895102431e+00  6.773981898544e-01
 n       4                    7 -1.230230117864e-01  7.142932054054e-01  4.174033036648e-01
 b       5                    5 -8.070697346104e-02 -7.538790231405e-01  2.171827743812e-02
 c       6                    6  1.309975483461e+00 -1.371576252611e+00  2.463642773278e-01
 c       7                    6 -1.357562715122e+00 -1.461964965736e+00 -4.542642354253e-01
 c       8                    6 -2.544952965386e+00 -6.808601798377e-01 -5.684510813256e-01
 c       9                    6 -2.326800271637e+00  6.987914673771e-01 -6.102693661460e-01
 c      10                    6 -9.451286808448e-01  1.126956533374e+00 -6.085626451866e-01
 h      11                    1  3.367431783741e+00 -1.039950956084e+00  8.058232851626e-01
 h      12                    1  3.128513414935e+00  1.451237156253e+00  1.040108679049e+00
 h      13                    1  9.205858891543e-01  2.545145905859e+00  7.684130078820e-01
 h      14                    1  1.458970833973e+00 -2.448846694466e+00  1.305325164306e-01
 h      15                    1 -1.365238436154e+00 -2.533859563339e+00 -6.921935457979e-01
 h      16                    1 -3.553600273899e+00 -1.110386808392e+00 -6.354514413113e-01
 h      17                    1 -3.106794713296e+00  1.463209797926e+00 -5.558522296750e-01
 h      18                    1 -4.605191299773e-01  1.694751045163e+00 -1.416965903863e+00
[GTO]
1
 s           8
      6.665000000000e+03      6.915839628130e-04
      1.000000000000e+03      5.325796152934e-03
      2.280000000000e+02      2.706072104203e-02
      6.471000000000e+01      1.016568461408e-01
      2.106000000000e+01      2.745748236174e-01
      7.495000000000e+00      4.482943189238e-01
      2.797000000000e+00      2.849026107152e-01
      5.215000000000e-01      1.519485920608e-02
 s           8
      6.665000000000e+03     -2.932696526865e-04
      1.000000000000e+03     -2.318035473975e-03
      2.280000000000e+02     -1.149978603857e-02
      6.471000000000e+01     -4.682672700979e-02
      2.106000000000e+01     -1.284661687505e-01
      7.495000000000e+00     -3.012662724629e-01
      2.797000000000e+00     -2.556307023301e-01
      5.215000000000e-01      1.093793361012e+00
 s           1
      1.596000000000e-01      1.000000000000e+00
 s           1
      4.690000000000e-02      1.000000000000e+00
 p           3
      9.439000000000e+00      5.697925159004e-02
      2.002000000000e+00      3.132072115007e-01
      5.456000000000e-01      7.603767417375e-01
 p           1
      1.517000000000e-01      1.000000000000e+00
 p           1
      4.041000000000e-02      1.000000000000e+00
 d           1
      5.500000000000e-01      1.000000000000e+00
 d           1
      1.510000000000e-01      1.000000000000e+00

2
 s           8
      6.665000000000e+03      6.915839628130e-04
      1.000000000000e+03      5.325796152934e-03
      2.280000000000e+02      2.706072104203e-02
      6.471000000000e+01      1.016568461408e-01
      2.106000000000e+01      2.745748236174e-01
      7.495000000000e+00      4.482943189238e-01
      2.797000000000e+00      2.849026107152e-01
      5.215000000000e-01      1.519485920608e-02
 s           8
      6.665000000000e+03     -2.932696526865e-04
      1.000000000000e+03     -2.318035473975e-03
      2.280000000000e+02     -1.149978603857e-02
      6.471000000000e+01     -4.682672700979e-02
      2.106000000000e+01     -1.284661687505e-01
      7.495000000000e+00     -3.012662724629e-01
      2.797000000000e+00     -2.556307023301e-01
      5.215000000000e-01      1.093793361012e+00
 s           1
      1.596000000000e-01      1.000000000000e+00
 s           1
      4.690000000000e-02      1.000000000000e+00
 p           3
      9.439000000000e+00      5.697925159004e-02
      2.002000000000e+00      3.132072115007e-01
      5.456000000000e-01      7.603767417375e-01
 p           1
      1.517000000000e-01      1.000000000000e+00
 p           1
      4.041000000000e-02      1.000000000000e+00
 d           1
      5.500000000000e-01      1.000000000000e+00
 d           1
      1.510000000000e-01      1.000000000000e+00

3
 s           8
      6.665000000000e+03      6.915839628130e-04
      1.000000000000e+03      5.325796152934e-03
      2.280000000000e+02      2.706072104203e-02
      6.471000000000e+01      1.016568461408e-01
      2.106000000000e+01      2.745748236174e-01
      7.495000000000e+00      4.482943189238e-01
      2.797000000000e+00      2.849026107152e-01
      5.215000000000e-01      1.519485920608e-02
 s           8
      6.665000000000e+03     -2.932696526865e-04
      1.000000000000e+03     -2.318035473975e-03
      2.280000000000e+02     -1.149978603857e-02
      6.471000000000e+01     -4.682672700979e-02
      2.106000000000e+01     -1.284661687505e-01
      7.495000000000e+00     -3.012662724629e-01
      2.797000000000e+00     -2.556307023301e-01
      5.215000000000e-01      1.093793361012e+00
 s           1
      1.596000000000e-01      1.000000000000e+00
 s           1
      4.690000000000e-02      1.000000000000e+00
 p           3
      9.439000000000e+00      5.697925159004e-02
      2.002000000000e+00      3.132072115007e-01
      5.456000000000e-01      7.603767417375e-01
 p           1
      1.517000000000e-01      1.000000000000e+00
 p           1
      4.041000000000e-02      1.000000000000e+00
 d           1
      5.500000000000e-01      1.000000000000e+00
 d           1
      1.510000000000e-01      1.000000000000e+00

4
 s           8
      9.046000000000e+03      6.996174134255e-04
      1.357000000000e+03      5.386054629929e-03
      3.093000000000e+02      2.739102118906e-02
      8.773000000000e+01      1.031505919820e-01
      2.856000000000e+01      2.785706633174e-01
      1.021000000000e+01      4.482948494541e-01
      3.838000000000e+00      2.780859283953e-01
      7.466000000000e-01      1.543156123327e-02
 s           8
      9.046000000000e+03     -3.049900959534e-04
      1.357000000000e+03     -2.408026378508e-03
      3.093000000000e+02     -1.194444872518e-02
      8.773000000000e+01     -4.892599290902e-02
      2.856000000000e+01     -1.344727247250e-01
      1.021000000000e+01     -3.151125777001e-01
      3.838000000000e+00     -2.428578325496e-01
      7.466000000000e-01      1.094382206854e+00
 s           1
      2.248000000000e-01      1.000000000000e+00
 s           1
      6.124000000000e-02      1.000000000000e+00
 p           3
      1.355000000000e+01      5.890567677213e-02
      2.917000000000e+00      3.204611067143e-01
      7.973000000000e-01      7.530420617921e-01
 p           1
      2.185000000000e-01      1.000000000000e+00
 p           1
      5.611000000000e-02      1.000000000000e+00
 d           1
      8.170000000000e-01      1.000000000000e+00
 d           1
      2.300000000000e-01      1.000000000000e+00

5
 s           8
      4.570000000000e+03      6.955544180306e-04
      6.859000000000e+02      5.349572988100e-03
      1.565000000000e+02      2.711662870523e-02
      4.447000000000e+01      1.013150961206e-01
      1.448000000000e+01      2.718808293065e-01
      5.131000000000e+00      4.481159306152e-01
      1.898000000000e+00      2.899372621010e-01
      3.329000000000e-01      1.431283099861e-02
 s           8
      4.570000000000e+03     -2.812802240142e-04
      6.859000000000e+02     -2.219887811105e-03
      1.565000000000e+02     -1.101647150743e-02
      4.447000000000e+01     -4.434918985248e-02
      1.448000000000e+01     -1.209120479502e-01
      5.131000000000e+00     -2.807378995535e-01
      1.898000000000e+00     -2.660668087326e-01
      3.329000000000e-01      1.091784130514e+00
 s           1
      1.043000000000e-01      1.000000000000e+00
 s           1
      3.105000000000e-02      1.000000000000e+00
 p           3
      6.001000000000e+00      5.416586334015e-02
      1.241000000000e+00      3.023798901809e-01
      3.364000000000e-01      7.712922165481e-01
 p           1
      9.538000000000e-02      1.000000000000e+00
 p           1
      2.378000000000e-02      1.000000000000e+00
 d           1
      3.430000000000e-01      1.000000000000e+00
 d           1
      9.040000000000e-02      1.000000000000e+00

6
 s           8
      6.665000000000e+03      6.915839628130e-04
      1.000000000000e+03      5.325796152934e-03
      2.280000000000e+02      2.706072104203e-02
      6.471000000000e+01      1.016568461408e-01
      2.106000000000e+01      2.745748236174e-01
      7.495000000000e+00      4.482943189238e-01
      2.797000000000e+00      2.849026107152e-01
      5.215000000000e-01      1.519485920608e-02
 s           8
      6.665000000000e+03     -2.932696526865e-04
      1.000000000000e+03     -2.318035473975e-03
      2.280000000000e+02     -1.149978603857e-02
      6.471000000000e+01     -4.682672700979e-02
      2.106000000000e+01     -1.284661687505e-01
      7.495000000000e+00     -3.012662724629e-01
      2.797000000000e+00     -2.556307023301e-01
      5.215000000000e-01      1.093793361012e+00
 s           1
      1.596000000000e-01      1.000000000000e+00
 s           1
      4.690000000000e-02      1.000000000000e+00
 p           3
      9.439000000000e+00      5.697925159004e-02
      2.002000000000e+00      3.132072115007e-01
      5.456000000000e-01      7.603767417375e-01
 p           1
      1.517000000000e-01      1.000000000000e+00
 p           1
      4.041000000000e-02      1.000000000000e+00
 d           1
      5.500000000000e-01      1.000000000000e+00
 d           1
      1.510000000000e-01      1.000000000000e+00

7
 s           8
      6.665000000000e+03      6.915839628130e-04
      1.000000000000e+03      5.325796152934e-03
      2.280000000000e+02      2.706072104203e-02
      6.471000000000e+01      1.016568461408e-01
      2.106000000000e+01      2.745748236174e-01
      7.495000000000e+00      4.482943189238e-01
      2.797000000000e+00      2.849026107152e-01
      5.215000000000e-01      1.519485920608e-02
 s           8
      6.665000000000e+03     -2.932696526865e-04
      1.000000000000e+03     -2.318035473975e-03
      2.280000000000e+02     -1.149978603857e-02
      6.471000000000e+01     -4.682672700979e-02
      2.106000000000e+01     -1.284661687505e-01
      7.495000000000e+00     -3.012662724629e-01
      2.797000000000e+00     -2.556307023301e-01
      5.215000000000e-01      1.093793361012e+00
 s           1
      1.596000000000e-01      1.000000000000e+00
 s           1
      4.690000000000e-02      1.000000000000e+00
 p           3
      9.439000000000e+00      5.697925159004e-02
      2.002000000000e+00      3.132072115007e-01
      5.456000000000e-01      7.603767417375e-01
 p           1
      1.517000000000e-01      1.000000000000e+00
 p           1
      4.041000000000e-02      1.000000000000e+00
 d           1
      5.500000000000e-01      1.000000000000e+00
 d           1
      1.510000000000e-01      1.000000000000e+00

8
 s           8
      6.665000000000e+03      6.915839628130e-04
      1.000000000000e+03      5.325796152934e-03
      2.280000000000e+02      2.706072104203e-02
      6.471000000000e+01      1.016568461408e-01
      2.106000000000e+01      2.745748236174e-01
      7.495000000000e+00      4.482943189238e-01
      2.797000000000e+00      2.849026107152e-01
      5.215000000000e-01      1.519485920608e-02
 s           8
      6.665000000000e+03     -2.932696526865e-04
      1.000000000000e+03     -2.318035473975e-03
      2.280000000000e+02     -1.149978603857e-02
      6.471000000000e+01     -4.682672700979e-02
      2.106000000000e+01     -1.284661687505e-01
      7.495000000000e+00     -3.012662724629e-01
      2.797000000000e+00     -2.556307023301e-01
      5.215000000000e-01      1.093793361012e+00
 s           1
      1.596000000000e-01      1.000000000000e+00
 s           1
      4.690000000000e-02      1.000000000000e+00
 p           3
      9.439000000000e+00      5.697925159004e-02
      2.002000000000e+00      3.132072115007e-01
      5.456000000000e-01      7.603767417375e-01
 p           1
      1.517000000000e-01      1.000000000000e+00
 p           1
      4.041000000000e-02      1.000000000000e+00
 d           1
      5.500000000000e-01      1.000000000000e+00
 d           1
      1.510000000000e-01      1.000000000000e+00

9
 s           8
      6.665000000000e+03      6.915839628130e-04
      1.000000000000e+03      5.325796152934e-03
      2.280000000000e+02      2.706072104203e-02
      6.471000000000e+01      1.016568461408e-01
      2.106000000000e+01      2.745748236174e-01
      7.495000000000e+00      4.482943189238e-01
      2.797000000000e+00      2.849026107152e-01
      5.215000000000e-01      1.519485920608e-02
 s           8
      6.665000000000e+03     -2.932696526865e-04
      1.000000000000e+03     -2.318035473975e-03
      2.280000000000e+02     -1.149978603857e-02
      6.471000000000e+01     -4.682672700979e-02
      2.106000000000e+01     -1.284661687505e-01
      7.495000000000e+00     -3.012662724629e-01
      2.797000000000e+00     -2.556307023301e-01
      5.215000000000e-01      1.093793361012e+00
 s           1
      1.596000000000e-01      1.000000000000e+00
 s           1
      4.690000000000e-02      1.000000000000e+00
 p           3
      9.439000000000e+00      5.697925159004e-02
      2.002000000000e+00      3.132072115007e-01
      5.456000000000e-01      7.603767417375e-01
 p           1
      1.517000000000e-01      1.000000000000e+00
 p           1
      4.041000000000e-02      1.000000000000e+00
 d           1
      5.500000000000e-01      1.000000000000e+00
 d           1
      1.510000000000e-01      1.000000000000e+00

10
 s           8
      6.665000000000e+03      6.915839628130e-04
      1.000000000000e+03      5.325796152934e-03
      2.280000000000e+02      2.706072104203e-02
      6.471000000000e+01      1.016568461408e-01
      2.106000000000e+01      2.745748236174e-01
      7.495000000000e+00      4.482943189238e-01
      2.797000000000e+00      2.849026107152e-01
      5.215000000000e-01      1.519485920608e-02
 s           8
      6.665000000000e+03     -2.932696526865e-04
      1.000000000000e+03     -2.318035473975e-03
      2.280000000000e+02     -1.149978603857e-02
      6.471000000000e+01     -4.682672700979e-02
      2.106000000000e+01     -1.284661687505e-01
      7.495000000000e+00     -3.012662724629e-01
      2.797000000000e+00     -2.556307023301e-01
      5.215000000000e-01      1.093793361012e+00
 s           1
      1.596000000000e-01      1.000000000000e+00
 s           1
      4.690000000000e-02      1.000000000000e+00
 p           3
      9.439000000000e+00      5.697925159004e-02
      2.002000000000e+00      3.132072115007e-01
      5.456000000000e-01      7.603767417375e-01
 p           1
      1.517000000000e-01      1.000000000000e+00
 p           1
      4.041000000000e-02      1.000000000000e+00
 d           1
      5.500000000000e-01      1.000000000000e+00
 d           1
      1.510000000000e-01      1.000000000000e+00

11
 s           3
      1.301000000000e+01      3.349872639000e-02
      1.962000000000e+00      2.348008011741e-01
      4.446000000000e-01      8.136829578829e-01
 s           1
      1.220000000000e-01      1.000000000000e+00
 s           1
      2.974000000000e-02      1.000000000000e+00
 p           1
      7.270000000000e-01      1.000000000000e+00
 p           1
      1.410000000000e-01      1.000000000000e+00

12
 s           3
      1.301000000000e+01      3.349872639000e-02
      1.962000000000e+00      2.348008011741e-01
      4.446000000000e-01      8.136829578829e-01
 s           1
      1.220000000000e-01      1.000000000000e+00
 s           1
      2.974000000000e-02      1.000000000000e+00
 p           1
      7.270000000000e-01      1.000000000000e+00
 p           1
      1.410000000000e-01      1.000000000000e+00

13
 s           3
      1.301000000000e+01      3.349872639000e-02
      1.962000000000e+00      2.348008011741e-01
      4.446000000000e-01      8.136829578829e-01
 s           1
      1.220000000000e-01      1.000000000000e+00
 s           1
      2.974000000000e-02      1.000000000000e+00
 p           1
      7.270000000000e-01      1.000000000000e+00
 p           1
      1.410000000000e-01      1.000000000000e+00

14
 s           3
      1.301000000000e+01      3.349872639000e-02
      1.962000000000e+00      2.348008011741e-01
      4.446000000000e-01      8.136829578829e-01
 s           1
      1.220000000000e-01      1.000000000000e+00
 s           1
      2.974000000000e-02      1.000000000000e+00
 p           1
      7.270000000000e-01      1.000000000000e+00
 p           1
      1.410000000000e-01      1.000000000000e+00

15
 s           3
      1.301000000000e+01      3.349872639000e-02
      1.962000000000e+00      2.348008011741e-01
      4.446000000000e-01      8.136829578829e-01
 s           1
      1.220000000000e-01      1.000000000000e+00
 s           1
      2.974000000000e-02      1.000000000000e+00
 p           1
      7.270000000000e-01      1.000000000000e+00
 p           1
      1.410000000000e-01      1.000000000000e+00

16
 s           3
      1.301000000000e+01      3.349872639000e-02
      1.962000000000e+00      2.348008011741e-01
      4.446000000000e-01      8.136829578829e-01
 s           1
      1.220000000000e-01      1.000000000000e+00
 s           1
      2.974000000000e-02      1.000000000000e+00
 p           1
      7.270000000000e-01      1.000000000000e+00
 p           1
      1.410000000000e-01      1.000000000000e+00

17
 s           3
      1.301000000000e+01      3.349872639000e-02
      1.962000000000e+00      2.348008011741e-01
      4.446000000000e-01      8.136829578829e-01
 s           1
      1.220000000000e-01      1.000000000000e+00
 s           1
      2.974000000000e-02      1.000000000000e+00
 p           1
      7.270000000000e-01      1.000000000000e+00
 p           1
      1.410000000000e-01      1.000000000000e+00

18
 s           3
      1.301000000000e+01      3.349872639000e-02
      1.962000000000e+00      2.348008011741e-01
      4.446000000000e-01      8.136829578829e-01
 s           1
      1.220000000000e-01      1.000000000000e+00
 s           1
      2.974000000000e-02      1.000000000000e+00
 p           1
      7.270000000000e-01      1.000000000000e+00
 p           1
      1.410000000000e-01      1.000000000000e+00


[5D]
[7F]
[9G]
[MO]
 Ene=  -15.611852
 Spin=  Alpha
 Occup=    2.000000
   1    -0.0001032467425267
   2    -0.0001818733985484
   3     0.0070633840356239
   4     0.0018130204690553
   5     0.0000066571406301
   6     0.0000009962879210
   7     0.0000133630507950
   8    -0.0013771935876132
   9     0.0082591569708872
  10     0.0008007215664135
  11    -0.0026028777576135
  12    -0.0032414321450116
  13    -0.0010137914830439
  14    -0.0000060956539188
  15     0.0000052826156555
  16     0.0000154808871519
  17    -0.0000327692110314
  18     0.0000079459266064
  19    -0.0001991073124871
  20    -0.0004045069901723
  21    -0.0003717522601517
  22    -0.0010199681875596
  23    -0.0019836966342743
  24     0.0000216999585231
  25     0.0000109153747472
  26     0.0083715925704907
  27    -0.0083499218658394
  28     0.0000927841857881
  29    -0.0000426231424781
  30    -0.0000049009999430
  31    -0.0059389889281591
  32     0.0115164036999966
  33     0.0005188188372207
  34     0.0041634191821306
  35    -0.0030981224234727
  36     0.0002569895674501
  37     0.0000092099035189
  38    -0.0000235405300740
  39     0.0000002264645280
  40    -0.0000929229848003
  41    -0.0000218620277304
  42     0.0005836057206199
  43     0.0000523541456433
  44    -0.0012339535639405
  45     0.0033615300908796
  46    -0.0026915964942951
  47     0.0002028295486710
  48     0.0003255247443818
  49    -0.0034009172571756
  50     0.0222560117869534
  51    -0.0003005845825274
  52    -0.0001600490751760
  53    -0.0001176018882662
  54    -0.0157941145641916
  55    -0.0027414640998694
  56    -0.0027178550332593
  57     0.0024747012775445
  58    -0.0035297287553419
  59    -0.0002361980604225
  60    -0.0000553771782266
  61    -0.0000096244273619
  62    -0.0000144246829141
  63    -0.0001138754451084
  64    -0.0001580420337353
  65    -0.0007351251780202
  66     0.0007742520265812
  67     0.0015084340139153
  68    -0.0016392039450679
  69     0.0066497453851724
  70     1.0031325807035301
  71     0.0054740364352953
  72    -0.0285316214956229
  73    -0.0202628222107488
  74     0.0004848546954286
  75     0.0006166376488755
  76    -0.0011105655757743
  77    -0.0021434231379371
  78    -0.0038790648209403
  79     0.0033633458681101
  80    -0.0027868437379851
  81    -0.0020235960075190
  82     0.0014941394695181
  83     0.0000258413014368
  84     0.0001578085323941
  85    -0.0000244624320441
  86     0.0000512416400141
  87     0.0000661196649846
  88    -0.0002172095175908
  89    -0.0015224987120795
  90    -0.0000380189472292
  91    -0.0011894096368016
  92    -0.0005107209939435
  93     0.0001305482386489
  94     0.0002826684748185
  95     0.0008580614260547
  96    -0.0044393919729740
  97    -0.0000397265627082
  98     0.0003248080012863
  99     0.0000171134945009
 100     0.0006637801676637
 101    -0.0016172057424585
 102    -0.0001055690306567
 103    -0.0007992130858712
 104    -0.0011106759100617
 105    -0.0001659872691981
 106    -0.0001607723056037
 107     0.0000161808673920
 108    -0.0000514935048749
 109     0.0000506517885512
 110     0.0000473739151119
 111     0.0003267740603139
 112     0.0000611734288851
 113    -0.0007932429904029
 114     0.0019149073696942
 115    -0.0006653204095838
 116     0.0000004774557292
 117    -0.0000274362750037
 118     0.0024092837903092
 119    -0.0060450476550563
 120     0.0000339264939124
 121    -0.0000461523935686
 122     0.0000067500140087
 123     0.0023956592593428
 124     0.0002309794702904
 125     0.0006509267692828
 126    -0.0020037930895854
 127    -0.0003103277505786
 128    -0.0007327795913182
 129     0.0000542066416172
 130    -0.0000003299412428
 131    -0.0000049482801947
 132     0.0000337783540451
 133     0.0000571071153358
 134    -0.0000334034243401
 135     0.0002417365887420
 136     0.0000752865111590
 137     0.0008140869957473
 138     0.0000957183943801
 139     0.0000583263186853
 140     0.0000853423704992
 141     0.0001451742598682
 142    -0.0048786996504901
 143    -0.0000151149181238
 144    -0.0000024801532070
 145    -0.0000125087112573
 146    -0.0016224881111093
 147    -0.0000860326765717
 148    -0.0002515992733679
 149     0.0012013788507024
 150    -0.0011257687725020
 151    -0.0001532483915123
 152     0.0000350678842544
 153    -0.0000302947166696
 154    -0.0000305750747703
 155     0.0000368308383173
 156    -0.0000427917263727
 157    -0.0000294400895601
 158    -0.0000019855738655
 159    -0.0001898571890443
 160     0.0010280306983801
 161    -0.0004589125725518
 162     0.0000247950985237
 163     0.0000332365722594
 164    -0.0018220688001380
 165     0.0034883137064229
 166     0.0000069843606902
 167    -0.0000347458142649
 168    -0.0000051552042508
 169    -0.0002447437556176
 170     0.0014988976269615
 171     0.0007434333583999
 172     0.0009578209272322
 173    -0.0012817528179696
 174     0.0002197543792947
 175     0.0000246333804545
 176    -0.0000177295606108
 177    -0.0000154877644504
 178    -0.0000007721636567
 179    -0.0000112960766029
 180    -0.0000055793315571
 181     0.0000894649087848
 182     0.0005572340262650
 183     0.0003177765883750
 184     0.0009018483596146
 185    -0.0000178299373044
 186    -0.0000554443458020
 187     0.0031020408081264
 188    -0.0087392816602568
 189    -0.0000652876021615
 190    -0.0000028685983755
 191    -0.0000411784717180
 192     0.0008865060342570
 193     0.0010772065265069
 194    -0.0002386849398847
 195    -0.0027406035803355
 196    -0.0005006949544816
 197    -0.0006147019662778
 198     0.0000704488628691
 199    -0.0000845505100985
 200    -0.0000667866863216
 201    -0.0001126216535656
 202     0.0000147977762807
 203    -0.0002551914294462
 204     0.0000734820873779
 205     0.0011295858097760
 206    -0.0001152681545683
 207     0.0006431467428354
 208     0.0001395245304707
 209     0.0001983455834433
 210     0.0075200628005354
 211     0.0169114522198037
 212     0.0002615828523439
 213    -0.0001422624185489
 214     0.0002382614868749
 215     0.0066008933862088
 216    -0.0033575899569603
 217     0.0060436506852280
 218    -0.0020488559797372
 219    -0.0025361187490215
 220     0.0025551514439545
 221    -0.0000821489701789
 222    -0.0002132682942838
 223    -0.0000579173925850
 224     0.0001421173064041
 225     0.0001466281901784
 226     0.0017700501443296
 227     0.0030442879565055
 228    -0.0019470567572988
 229    -0.0013303399330676
 230    -0.0018087150238944
 231     0.0000172376724987
 232     0.0015027742175284
 233     0.0003641283932896
 234     0.0000024882139396
 235    -0.0000000115853778
 236    -0.0000082175314597
 237    -0.0002560261915372
 238     0.0005412340067506
 239    -0.0000153340884132
 240     0.0000364441351516
 241    -0.0017147145265555
 242    -0.0002610026814008
 243     0.0000390898155230
 244     0.0000143409403295
 245     0.0000145864301459
 246     0.0006583631162671
 247     0.0008426360290829
 248     0.0003008278447591
 249    -0.0002430447228910
 250     0.0002217706736476
 251     0.0015463364578329
 252     0.0000377213911049
 253     0.0001373346400182
 254     0.0000221542314134
 255    -0.0016272509121789
 256    -0.0004574004574695
 257    -0.0004147455904937
 258     0.0000569904704371
 259     0.0007891123211021
 260    -0.0003776009067001
 261    -0.0000098626137178
 262     0.0000195380763056
 263     0.0000054275404063
 264    -0.0003391785557385
 265    -0.0000372630838836
 266     0.0000222940857748
 267     0.0000636828566241
 268     0.0022377226248790
 269    -0.0011856343514383
 270    -0.0000250084138857
 271    -0.0000004727845987
 272    -0.0000024977850197
 273     0.0001929576792648
 274     0.0004190282183155
 275     0.0002552636336370
 276     0.0000077119994440
 277    -0.0005057294789586
 278    -0.0001894962661789
 279     0.0000335148074781
 280    -0.0000004771690026
 281    -0.0000084064439361
 282    -0.0000350752562934
 283     0.0000919833708409
 284     0.0000688044937881
 285    -0.0000084015151455
 286     0.0007988509948769
 287    -0.0004743634670632
 288     0.0000369014322373
 289    -0.0000215628060415
 290    -0.0000279957508800
 291     0.0000616939134209
 292    -0.0003003226105618
 293    -0.0002381400894918
 294    -0.0003018484567270
 295     0.0012575152594864
 296     0.0018118936974058
 297     0.0000059964149989
 298     0.0000992913214323
 299    -0.0002106095870113
 300     0.0011601188860809
 301    -0.0004586775295697
 302     0.0005055242943722
 Ene=  -11.309957
 Spin=  Alpha
 Occup=    2.000000
   1     0.0000121867417238
   2     0.0000149869359936
   3    -0.0026481752324852
   4     0.0012713924733784
   5     0.0000393197896741
   6     0.0000182798363851
   7     0.0000298629524388
   8    -0.0010011956099535
   9    -0.0064252221798414
  10    -0.0012023297441476
  11    -0.0016113845445950
  12    -0.0002172249245970
  13    -0.0003094527538126
  14     0.0000109145675576
  15    -0.0000083608310985
  16    -0.0000286091070864
  17     0.0000461708620481
  18    -0.0000171456366982
  19     0.0001953937931639
  20     0.0004739773934284
  21     0.0002513184984709
  22     0.0007603424429587
  23     0.0014991707159719
  24     0.0000002701276922
  25     0.0000108056914057
  26    -0.0068318227031900
  27    -0.0097457645087781
  28     0.0000650262146026
  29     0.0000039503818676
  30     0.0000110406312485
  31     0.0068452272909962
  32    -0.0073746130283150
  33     0.0012367070786132
  34     0.0028883844145895
  35    -0.0016484757406374
  36     0.0000496018568728
  37    -0.0000066184528252
  38    -0.0000493763365512
  39     0.0000170130484295
  40    -0.0000779347336175
  41    -0.0000425943240184
  42     0.0000304291175679
  43    -0.0008086486912594
  44     0.0009473469062281
  45    -0.0028271613255183
  46     0.0016891379082229
  47     0.0003071067849314
  48    -0.0000180516831335
  49     0.0094938604462596
  50     0.0067624891933589
  51    -0.0001263713948269
  52    -0.0000069263898397
  53    -0.0000551780646138
  54     0.0099267057086907
  55    -0.0039761184485707
  56     0.0008553482058549
  57     0.0046618156236922
  58    -0.0013731778362193
  59     0.0010113038133808
  60    -0.0000220356915904
  61    -0.0000735254726774
  62     0.0000527002219291
  63    -0.0001537667262898
  64    -0.0000810352154055
  65    -0.0008541432174069
  66    -0.0012288356160086
  67     0.0002785623148634
  68     0.0001239504643297
  69    -0.0034472291898195
  70    -0.0001852247309286
  71    -0.0007156218437532
  72     0.0045053452266112
  73    -0.0012860319298702
  74     0.0001677247722002
  75    -0.0001208649286926
  76     0.0003431259949430
  77     0.0000518589475218
  78     0.0015751925482043
  79    -0.0012388132494025
  80     0.0025610069771874
  81     0.0002453127824582
  82    -0.0000722709250306
  83    -0.0000509093805415
  84     0.0001134195622771
  85    -0.0000668639014622
  86     0.0000577244123460
  87     0.0000155937889803
  88     0.0012580966728159
  89     0.0008075393936435
  90    -0.0002500035691079
  91    -0.0003473465131655
  92    -0.0000623184251995
  93     0.0000962237266680
  94     0.0000710623060173
  95    -0.0034257916016143
  96    -0.0008244106036706
  97    -0.0000032147010579