[Molden Format]
[Atoms] Angs
 c       1                    6  2.352533837642e+00 -5.448879576711e-01  6.000690348398e-01
 c       2                    6  2.219074475780e+00  8.773697293561e-01  8.296368570120e-01
 c       3                    6  1.008396863429e+00  1.509652600686e+00  7.341698765019e-01
 n       4                    7 -1.929493186112e-01  8.023090498811e-01  5.321366053256e-01
 b       5                    5 -1.379946216711e-01 -6.875734304795e-01  1.808758124686e-01
 c       6                    6  1.276288278696e+00 -1.326208865399e+00  2.713401617460e-01
 c       7                    6 -1.358031973707e+00 -1.338297012711e+00 -4.861116039708e-01
 c       8                    6 -2.622905176354e+00 -6.199371804479e-01 -6.057042285507e-01
 c       9                    6 -2.342678180178e+00  7.214517659360e-01 -5.992448341295e-01
 c      10                    6 -8.629960612901e-01  8.011415858037e-01 -6.995696881307e-01
 h      11                    1  3.351770564115e+00 -9.845949821486e-01  6.949627035724e-01
 h      12                    1  3.097667627198e+00  1.483389318129e+00  1.061751820160e+00
 h      13                    1  8.984059270496e-01  2.586596700170e+00  8.911206480402e-01
 h      14                    1  1.436434274880e+00 -2.394617594626e+00  8.486355464801e-02
 h      15                    1 -1.229930978956e+00 -2.328751737067e+00 -9.415564509156e-01
 h      16                    1 -3.607385610345e+00 -1.097894929698e+00 -5.968490992690e-01
 h      17                    1 -2.965885095603e+00  1.572852592695e+00 -3.111361312909e-01
 h      18                    1 -3.198148320754e-01  9.680003475934e-01 -1.640755038057e+00
[GTO]
1
 s           8
      6.665000000000e+03      6.915839628130e-04
      1.000000000000e+03      5.325796152934e-03
      2.280000000000e+02      2.706072104203e-02
      6.471000000000e+01      1.016568461408e-01
      2.106000000000e+01      2.745748236174e-01
      7.495000000000e+00      4.482943189238e-01
      2.797000000000e+00      2.849026107152e-01
      5.215000000000e-01      1.519485920608e-02
 s           8
      6.665000000000e+03     -2.932696526865e-04
      1.000000000000e+03     -2.318035473975e-03
      2.280000000000e+02     -1.149978603857e-02
      6.471000000000e+01     -4.682672700979e-02
      2.106000000000e+01     -1.284661687505e-01
      7.495000000000e+00     -3.012662724629e-01
      2.797000000000e+00     -2.556307023301e-01
      5.215000000000e-01      1.093793361012e+00
 s           1
      1.596000000000e-01      1.000000000000e+00
 s           1
      4.690000000000e-02      1.000000000000e+00
 p           3
      9.439000000000e+00      5.697925159004e-02
      2.002000000000e+00      3.132072115007e-01
      5.456000000000e-01      7.603767417375e-01
 p           1
      1.517000000000e-01      1.000000000000e+00
 p           1
      4.041000000000e-02      1.000000000000e+00
 d           1
      5.500000000000e-01      1.000000000000e+00
 d           1
      1.510000000000e-01      1.000000000000e+00

2
 s           8
      6.665000000000e+03      6.915839628130e-04
      1.000000000000e+03      5.325796152934e-03
      2.280000000000e+02      2.706072104203e-02
      6.471000000000e+01      1.016568461408e-01
      2.106000000000e+01      2.745748236174e-01
      7.495000000000e+00      4.482943189238e-01
      2.797000000000e+00      2.849026107152e-01
      5.215000000000e-01      1.519485920608e-02
 s           8
      6.665000000000e+03     -2.932696526865e-04
      1.000000000000e+03     -2.318035473975e-03
      2.280000000000e+02     -1.149978603857e-02
      6.471000000000e+01     -4.682672700979e-02
      2.106000000000e+01     -1.284661687505e-01
      7.495000000000e+00     -3.012662724629e-01
      2.797000000000e+00     -2.556307023301e-01
      5.215000000000e-01      1.093793361012e+00
 s           1
      1.596000000000e-01      1.000000000000e+00
 s           1
      4.690000000000e-02      1.000000000000e+00
 p           3
      9.439000000000e+00      5.697925159004e-02
      2.002000000000e+00      3.132072115007e-01
      5.456000000000e-01      7.603767417375e-01
 p           1
      1.517000000000e-01      1.000000000000e+00
 p           1
      4.041000000000e-02      1.000000000000e+00
 d           1
      5.500000000000e-01      1.000000000000e+00
 d           1
      1.510000000000e-01      1.000000000000e+00

3
 s           8
      6.665000000000e+03      6.915839628130e-04
      1.000000000000e+03      5.325796152934e-03
      2.280000000000e+02      2.706072104203e-02
      6.471000000000e+01      1.016568461408e-01
      2.106000000000e+01      2.745748236174e-01
      7.495000000000e+00      4.482943189238e-01
      2.797000000000e+00      2.849026107152e-01
      5.215000000000e-01      1.519485920608e-02
 s           8
      6.665000000000e+03     -2.932696526865e-04
      1.000000000000e+03     -2.318035473975e-03
      2.280000000000e+02     -1.149978603857e-02
      6.471000000000e+01     -4.682672700979e-02
      2.106000000000e+01     -1.284661687505e-01
      7.495000000000e+00     -3.012662724629e-01
      2.797000000000e+00     -2.556307023301e-01
      5.215000000000e-01      1.093793361012e+00
 s           1
      1.596000000000e-01      1.000000000000e+00
 s           1
      4.690000000000e-02      1.000000000000e+00
 p           3
      9.439000000000e+00      5.697925159004e-02
      2.002000000000e+00      3.132072115007e-01
      5.456000000000e-01      7.603767417375e-01
 p           1
      1.517000000000e-01      1.000000000000e+00
 p           1
      4.041000000000e-02      1.000000000000e+00
 d           1
      5.500000000000e-01      1.000000000000e+00
 d           1
      1.510000000000e-01      1.000000000000e+00

4
 s           8
      9.046000000000e+03      6.996174134255e-04
      1.357000000000e+03      5.386054629929e-03
      3.093000000000e+02      2.739102118906e-02
      8.773000000000e+01      1.031505919820e-01
      2.856000000000e+01      2.785706633174e-01
      1.021000000000e+01      4.482948494541e-01
      3.838000000000e+00      2.780859283953e-01
      7.466000000000e-01      1.543156123327e-02
 s           8
      9.046000000000e+03     -3.049900959534e-04
      1.357000000000e+03     -2.408026378508e-03
      3.093000000000e+02     -1.194444872518e-02
      8.773000000000e+01     -4.892599290902e-02
      2.856000000000e+01     -1.344727247250e-01
      1.021000000000e+01     -3.151125777001e-01
      3.838000000000e+00     -2.428578325496e-01
      7.466000000000e-01      1.094382206854e+00
 s           1
      2.248000000000e-01      1.000000000000e+00
 s           1
      6.124000000000e-02      1.000000000000e+00
 p           3
      1.355000000000e+01      5.890567677213e-02
      2.917000000000e+00      3.204611067143e-01
      7.973000000000e-01      7.530420617921e-01
 p           1
      2.185000000000e-01      1.000000000000e+00
 p           1
      5.611000000000e-02      1.000000000000e+00
 d           1
      8.170000000000e-01      1.000000000000e+00
 d           1
      2.300000000000e-01      1.000000000000e+00

5
 s           8
      4.570000000000e+03      6.955544180306e-04
      6.859000000000e+02      5.349572988100e-03
      1.565000000000e+02      2.711662870523e-02
      4.447000000000e+01      1.013150961206e-01
      1.448000000000e+01      2.718808293065e-01
      5.131000000000e+00      4.481159306152e-01
      1.898000000000e+00      2.899372621010e-01
      3.329000000000e-01      1.431283099861e-02
 s           8
      4.570000000000e+03     -2.812802240142e-04
      6.859000000000e+02     -2.219887811105e-03
      1.565000000000e+02     -1.101647150743e-02
      4.447000000000e+01     -4.434918985248e-02
      1.448000000000e+01     -1.209120479502e-01
      5.131000000000e+00     -2.807378995535e-01
      1.898000000000e+00     -2.660668087326e-01
      3.329000000000e-01      1.091784130514e+00
 s           1
      1.043000000000e-01      1.000000000000e+00
 s           1
      3.105000000000e-02      1.000000000000e+00
 p           3
      6.001000000000e+00      5.416586334015e-02
      1.241000000000e+00      3.023798901809e-01
      3.364000000000e-01      7.712922165481e-01
 p           1
      9.538000000000e-02      1.000000000000e+00
 p           1
      2.378000000000e-02      1.000000000000e+00
 d           1
      3.430000000000e-01      1.000000000000e+00
 d           1
      9.040000000000e-02      1.000000000000e+00

6
 s           8
      6.665000000000e+03      6.915839628130e-04
      1.000000000000e+03      5.325796152934e-03
      2.280000000000e+02      2.706072104203e-02
      6.471000000000e+01      1.016568461408e-01
      2.106000000000e+01      2.745748236174e-01
      7.495000000000e+00      4.482943189238e-01
      2.797000000000e+00      2.849026107152e-01
      5.215000000000e-01      1.519485920608e-02
 s           8
      6.665000000000e+03     -2.932696526865e-04
      1.000000000000e+03     -2.318035473975e-03
      2.280000000000e+02     -1.149978603857e-02
      6.471000000000e+01     -4.682672700979e-02
      2.106000000000e+01     -1.284661687505e-01
      7.495000000000e+00     -3.012662724629e-01
      2.797000000000e+00     -2.556307023301e-01
      5.215000000000e-01      1.093793361012e+00
 s           1
      1.596000000000e-01      1.000000000000e+00
 s           1
      4.690000000000e-02      1.000000000000e+00
 p           3
      9.439000000000e+00      5.697925159004e-02
      2.002000000000e+00      3.132072115007e-01
      5.456000000000e-01      7.603767417375e-01
 p           1
      1.517000000000e-01      1.000000000000e+00
 p           1
      4.041000000000e-02      1.000000000000e+00
 d           1
      5.500000000000e-01      1.000000000000e+00
 d           1
      1.510000000000e-01      1.000000000000e+00

7
 s           8
      6.665000000000e+03      6.915839628130e-04
      1.000000000000e+03      5.325796152934e-03
      2.280000000000e+02      2.706072104203e-02
      6.471000000000e+01      1.016568461408e-01
      2.106000000000e+01      2.745748236174e-01
      7.495000000000e+00      4.482943189238e-01
      2.797000000000e+00      2.849026107152e-01
      5.215000000000e-01      1.519485920608e-02
 s           8
      6.665000000000e+03     -2.932696526865e-04
      1.000000000000e+03     -2.318035473975e-03
      2.280000000000e+02     -1.149978603857e-02
      6.471000000000e+01     -4.682672700979e-02
      2.106000000000e+01     -1.284661687505e-01
      7.495000000000e+00     -3.012662724629e-01
      2.797000000000e+00     -2.556307023301e-01
      5.215000000000e-01      1.093793361012e+00
 s           1
      1.596000000000e-01      1.000000000000e+00
 s           1
      4.690000000000e-02      1.000000000000e+00
 p           3
      9.439000000000e+00      5.697925159004e-02
      2.002000000000e+00      3.132072115007e-01
      5.456000000000e-01      7.603767417375e-01
 p           1
      1.517000000000e-01      1.000000000000e+00
 p           1
      4.041000000000e-02      1.000000000000e+00
 d           1
      5.500000000000e-01      1.000000000000e+00
 d           1
      1.510000000000e-01      1.000000000000e+00

8
 s           8
      6.665000000000e+03      6.915839628130e-04
      1.000000000000e+03      5.325796152934e-03
      2.280000000000e+02      2.706072104203e-02
      6.471000000000e+01      1.016568461408e-01
      2.106000000000e+01      2.745748236174e-01
      7.495000000000e+00      4.482943189238e-01
      2.797000000000e+00      2.849026107152e-01
      5.215000000000e-01      1.519485920608e-02
 s           8
      6.665000000000e+03     -2.932696526865e-04
      1.000000000000e+03     -2.318035473975e-03
      2.280000000000e+02     -1.149978603857e-02
      6.471000000000e+01     -4.682672700979e-02
      2.106000000000e+01     -1.284661687505e-01
      7.495000000000e+00     -3.012662724629e-01
      2.797000000000e+00     -2.556307023301e-01
      5.215000000000e-01      1.093793361012e+00
 s           1
      1.596000000000e-01      1.000000000000e+00
 s           1
      4.690000000000e-02      1.000000000000e+00
 p           3
      9.439000000000e+00      5.697925159004e-02
      2.002000000000e+00      3.132072115007e-01
      5.456000000000e-01      7.603767417375e-01
 p           1
      1.517000000000e-01      1.000000000000e+00
 p           1
      4.041000000000e-02      1.000000000000e+00
 d           1
      5.500000000000e-01      1.000000000000e+00
 d           1
      1.510000000000e-01      1.000000000000e+00

9
 s           8
      6.665000000000e+03      6.915839628130e-04
      1.000000000000e+03      5.325796152934e-03
      2.280000000000e+02      2.706072104203e-02
      6.471000000000e+01      1.016568461408e-01
      2.106000000000e+01      2.745748236174e-01
      7.495000000000e+00      4.482943189238e-01
      2.797000000000e+00      2.849026107152e-01
      5.215000000000e-01      1.519485920608e-02
 s           8
      6.665000000000e+03     -2.932696526865e-04
      1.000000000000e+03     -2.318035473975e-03
      2.280000000000e+02     -1.149978603857e-02
      6.471000000000e+01     -4.682672700979e-02
      2.106000000000e+01     -1.284661687505e-01
      7.495000000000e+00     -3.012662724629e-01
      2.797000000000e+00     -2.556307023301e-01
      5.215000000000e-01      1.093793361012e+00
 s           1
      1.596000000000e-01      1.000000000000e+00
 s           1
      4.690000000000e-02      1.000000000000e+00
 p           3
      9.439000000000e+00      5.697925159004e-02
      2.002000000000e+00      3.132072115007e-01
      5.456000000000e-01      7.603767417375e-01
 p           1
      1.517000000000e-01      1.000000000000e+00
 p           1
      4.041000000000e-02      1.000000000000e+00
 d           1
      5.500000000000e-01      1.000000000000e+00
 d           1
      1.510000000000e-01      1.000000000000e+00

10
 s           8
      6.665000000000e+03      6.915839628130e-04
      1.000000000000e+03      5.325796152934e-03
      2.280000000000e+02      2.706072104203e-02
      6.471000000000e+01      1.016568461408e-01
      2.106000000000e+01      2.745748236174e-01
      7.495000000000e+00      4.482943189238e-01
      2.797000000000e+00      2.849026107152e-01
      5.215000000000e-01      1.519485920608e-02
 s           8
      6.665000000000e+03     -2.932696526865e-04
      1.000000000000e+03     -2.318035473975e-03
      2.280000000000e+02     -1.149978603857e-02
      6.471000000000e+01     -4.682672700979e-02
      2.106000000000e+01     -1.284661687505e-01
      7.495000000000e+00     -3.012662724629e-01
      2.797000000000e+00     -2.556307023301e-01
      5.215000000000e-01      1.093793361012e+00
 s           1
      1.596000000000e-01      1.000000000000e+00
 s           1
      4.690000000000e-02      1.000000000000e+00
 p           3
      9.439000000000e+00      5.697925159004e-02
      2.002000000000e+00      3.132072115007e-01
      5.456000000000e-01      7.603767417375e-01
 p           1
      1.517000000000e-01      1.000000000000e+00
 p           1
      4.041000000000e-02      1.000000000000e+00
 d           1
      5.500000000000e-01      1.000000000000e+00
 d           1
      1.510000000000e-01      1.000000000000e+00

11
 s           3
      1.301000000000e+01      3.349872639000e-02
      1.962000000000e+00      2.348008011741e-01
      4.446000000000e-01      8.136829578829e-01
 s           1
      1.220000000000e-01      1.000000000000e+00
 s           1
      2.974000000000e-02      1.000000000000e+00
 p           1
      7.270000000000e-01      1.000000000000e+00
 p           1
      1.410000000000e-01      1.000000000000e+00

12
 s           3
      1.301000000000e+01      3.349872639000e-02
      1.962000000000e+00      2.348008011741e-01
      4.446000000000e-01      8.136829578829e-01
 s           1
      1.220000000000e-01      1.000000000000e+00
 s           1
      2.974000000000e-02      1.000000000000e+00
 p           1
      7.270000000000e-01      1.000000000000e+00
 p           1
      1.410000000000e-01      1.000000000000e+00

13
 s           3
      1.301000000000e+01      3.349872639000e-02
      1.962000000000e+00      2.348008011741e-01
      4.446000000000e-01      8.136829578829e-01
 s           1
      1.220000000000e-01      1.000000000000e+00
 s           1
      2.974000000000e-02      1.000000000000e+00
 p           1
      7.270000000000e-01      1.000000000000e+00
 p           1
      1.410000000000e-01      1.000000000000e+00

14
 s           3
      1.301000000000e+01      3.349872639000e-02
      1.962000000000e+00      2.348008011741e-01
      4.446000000000e-01      8.136829578829e-01
 s           1
      1.220000000000e-01      1.000000000000e+00
 s           1
      2.974000000000e-02      1.000000000000e+00
 p           1
      7.270000000000e-01      1.000000000000e+00
 p           1
      1.410000000000e-01      1.000000000000e+00

15
 s           3
      1.301000000000e+01      3.349872639000e-02
      1.962000000000e+00      2.348008011741e-01
      4.446000000000e-01      8.136829578829e-01
 s           1
      1.220000000000e-01      1.000000000000e+00
 s           1
      2.974000000000e-02      1.000000000000e+00
 p           1
      7.270000000000e-01      1.000000000000e+00
 p           1
      1.410000000000e-01      1.000000000000e+00

16
 s           3
      1.301000000000e+01      3.349872639000e-02
      1.962000000000e+00      2.348008011741e-01
      4.446000000000e-01      8.136829578829e-01
 s           1
      1.220000000000e-01      1.000000000000e+00
 s           1
      2.974000000000e-02      1.000000000000e+00
 p           1
      7.270000000000e-01      1.000000000000e+00
 p           1
      1.410000000000e-01      1.000000000000e+00

17
 s           3
      1.301000000000e+01      3.349872639000e-02
      1.962000000000e+00      2.348008011741e-01
      4.446000000000e-01      8.136829578829e-01
 s           1
      1.220000000000e-01      1.000000000000e+00
 s           1
      2.974000000000e-02      1.000000000000e+00
 p           1
      7.270000000000e-01      1.000000000000e+00
 p           1
      1.410000000000e-01      1.000000000000e+00

18
 s           3
      1.301000000000e+01      3.349872639000e-02
      1.962000000000e+00      2.348008011741e-01
      4.446000000000e-01      8.136829578829e-01
 s           1
      1.220000000000e-01      1.000000000000e+00
 s           1
      2.974000000000e-02      1.000000000000e+00
 p           1
      7.270000000000e-01      1.000000000000e+00
 p           1
      1.410000000000e-01      1.000000000000e+00


[5D]
[7F]
[9G]
[MO]
 Ene=  -15.599137
 Spin=  Alpha
 Occup=    2.000000
   1    -0.0000828360319050
   2    -0.0001484344951213
   3     0.0059239362842173
   4     0.0057578804204298
   5     0.0000015397072785
   6     0.0000015110511726
   7     0.0000156336509050
   8    -0.0012133941217149
   9     0.0079574201364391
  10     0.0012848734360255
  11    -0.0032127762803602
  12    -0.0028548174880123
  13    -0.0011324616466511
  14    -0.0000038070827502
  15     0.0000004425089092
  16    -0.0000003091414373
  17    -0.0000156741359172
  18    -0.0000221477728689
  19    -0.0001082398189119
  20    -0.0005350893056415
  21    -0.0002628210421472
  22    -0.0008623466754697
  23    -0.0024081886147209
  24     0.0000358395342138
  25     0.0000349837709571
  26     0.0081838679209155
  27    -0.0124634951358663
  28     0.0000780966010652
  29    -0.0000397349364608
  30    -0.0000068108316337
  31    -0.0054469988374339
  32     0.0114016727513242
  33     0.0010111070404416
  34     0.0046970204433438
  35    -0.0024740669095990
  36     0.0004512575764504
  37     0.0000117192874491
  38    -0.0000327718747209
  39    -0.0000105679517594
  40    -0.0001139930318215
  41    -0.0000318100623501
  42     0.0004304086982286
  43    -0.0003059781843835
  44    -0.0011091560500347
  45     0.0027089732529680
  46    -0.0033496049368310
  47     0.0001820687673224
  48     0.0002908027843835
  49    -0.0039576771671142
  50     0.0249771468721924
  51    -0.0002821059539472
  52    -0.0001397395783143
  53    -0.0000725393649875
  54    -0.0154480986292357
  55    -0.0024369405977344
  56    -0.0023849650542361
  57     0.0025028765027715
  58    -0.0043766483082190
  59    -0.0005452102143360
  60    -0.0000415783349988
  61    -0.0000175351881088
  62     0.0000277341742847
  63    -0.0001299474867353
  64    -0.0001491660014100
  65    -0.0006309305361317
  66     0.0005020360412432
  67     0.0013737061412596
  68    -0.0020241362130157
  69     0.0060756589212145
  70     1.0031720103217909
  71     0.0054936874300768
  72    -0.0286970597570807
  73    -0.0193306655822777
  74     0.0007700456558274
  75     0.0000544442824744
  76    -0.0013881003297341
  77    -0.0027119093944539
  78    -0.0007770494102959
  79     0.0053129284777744
  80    -0.0038803545709406
  81    -0.0008522819747158
  82     0.0014925035735869
  83     0.0000444135770681
  84     0.0000844421973804
  85     0.0000411731189455
  86     0.0000687135873105
  87     0.0000975465114366
  88    -0.0005566458351813
  89    -0.0013236234750914
  90    -0.0005275718379675
  91    -0.0009592803737838
  92    -0.0007713364785925
  93     0.0002314091985152
  94     0.0004544752739435
  95     0.0039897699008867
  96    -0.0022905168091320
  97    -0.0000076302645600
  98     0.0004490069499221
  99     0.0000880336374491
 100    -0.0000744225600481
 101    -0.0019304378365601
 102    -0.0009185151158716
 103    -0.0008858474152438
 104    -0.0008178774845934
 105    -0.0004842216221502
 106    -0.0002561238592803
 107     0.0000041920754934
 108     0.0000547163689369
 109     0.0000001022135557
 110     0.0001822149212256
 111     0.0004377731740562
 112     0.0002432154587884
 113    -0.0002879700626878
 114     0.0014968194294498
 115    -0.0000437360163067
 116     0.0000369796162347
 117     0.0000397696962219
 118     0.0030753511352574
 119    -0.0082796832779399
 120     0.0000205794058310
 121    -0.0000272678662054
 122     0.0000056290629564
 123     0.0031455786643034
 124     0.0003064691059960
 125     0.0006775282412741
 126    -0.0022538357682485
 127    -0.0007846865913901
 128    -0.0004793245410046
 129     0.0000618204415118
 130     0.0000119433287265
 131    -0.0000043008050685
 132     0.0000771780819372
 133     0.0000936655385614
 134     0.0000066788324979
 135     0.0000717309745396
 136    -0.0000509355095944
 137     0.0008621123351138
 138     0.0002607297760418
 139     0.0001250495269716
 140     0.0001784779482029
 141    -0.0005526623373098
 142    -0.0047277766433591
 143    -0.0000264396803537
 144    -0.0000025606931775
 145    -0.0000335749463148
 146    -0.0025831188584156
 147    -0.0009908628461095
 148    -0.0011154014705131
 149     0.0009603813160746
 150    -0.0011475159531212
 151    -0.0003567172224731
 152     0.0000462049575180
 153    -0.0000719123656908
 154    -0.0000485695307263
 155     0.0000682646204538
 156    -0.0000802443563730
 157    -0.0000908542487815
 158    -0.0001090141646523
 159    -0.0005318232599921
 160     0.0006837467080616
 161    -0.0009210809051393
 162     0.0000601534385306
 163     0.0000968025438400
 164    -0.0035948912785239
 165     0.0019695110092076
 166     0.0000159990937841
 167    -0.0000285626706934
 168    -0.0000038372857429
 169    -0.0007317676386144
 170     0.0005922838032792
 171     0.0002347421571101
 172     0.0007794620473067
 173    -0.0011191520248928
 174     0.0000541129557505
 175     0.0000364985446571
 176    -0.0000313085628112
 177    -0.0000108237684758
 178     0.0000156232881479
 179     0.0000150298808381
 180     0.0000891962253942
 181     0.0001617447296575
 182     0.0002179835742218
 183     0.0000912660163094
 184     0.0006452548609724
 185     0.0000049597935403
 186    -0.0000193712549748
 187     0.0028207400936217
 188    -0.0067433626145999
 189    -0.0000614634030770
 190     0.0000071074760649
 191    -0.0000395309360848
 192     0.0003770205389779
 193    -0.0002678176729750
 194    -0.0002653833723309
 195    -0.0024415946195991
 196    -0.0004788534504570
 197    -0.0003073498961207
 198     0.0000915987691384
 199    -0.0000691570456969
 200    -0.0000027560743650
 201    -0.0001445374689640
 202     0.0000335661675846
 203    -0.0004581963704365
 204     0.0001225337576822
 205     0.0002626749347818
 206    -0.0004352841490871
 207     0.0006557790389334
 208     0.0000325855426320
 209     0.0000461580848241
 210     0.0097708195454184
 211     0.0124306228976875
 212     0.0002440695972466
 213     0.0000678510179756
 214     0.0003435874713776
 215     0.0049848241943286
 216    -0.0018441679330593
 217     0.0085516663066421
 218    -0.0027262246159553
 219    -0.0001486151156535
 220     0.0025019190080003
 221    -0.0000658896704804
 222    -0.0001675461149793
 223     0.0000027413041023
 224     0.0002525140506593
 225     0.0000208019695521
 226     0.0031599697111784
 227     0.0033272869153382
 228    -0.0011634427547428
 229    -0.0013379728539548
 230    -0.0000426021250477
 231     0.0000133173312231
 232     0.0005634076743291
 233     0.0006254856282566
 234     0.0000065893907705
 235     0.0000022936062256
 236    -0.0000047644024434
 237    -0.0000120849153213
 238     0.0004809459170294
 239     0.0000784825161679
 240     0.0000640564642503
 241    -0.0004425701706000
 242    -0.0005413040925085
 243     0.0000488971053684
 244     0.0000070222339699
 245     0.0000159119897464
 246     0.0004643155679008
 247     0.0005798014322892
 248     0.0002181481464201
 249    -0.0002514813472432
 250    -0.0006720649191899
 251     0.0018083562449553
 252     0.0000339211713089
 253     0.0001130805897229
 254     0.0000172003714461
 255    -0.0015329544864419
 256    -0.0002641390626492
 257    -0.0003151525935392
 258     0.0000869886715371
 259     0.0011636173249218
 260    -0.0004251050055221
 261    -0.0000107029957719
 262     0.0000317593652374
 263     0.0000096814950912
 264    -0.0003480966604346
 265     0.0000529440187703
 266     0.0000308094701354
 267     0.0000605243986870
 268     0.0001392779855302
 269    -0.0014135588267291
 270    -0.0000330641349346
 271     0.0000060156796824
 272     0.0000054967572807
 273    -0.0001934507649300
 274    -0.0001948509402001
 275     0.0000274932552912
 276     0.0000248916326128
 277    -0.0002801007229856
 278    -0.0002390768993854
 279     0.0000215564420295
 280     0.0000041583688874
 281    -0.0000074487201199
 282    -0.0000202199621706
 283     0.0000633097026458
 284     0.0001181328273913
 285    -0.0000247237231677
 286     0.0012197114915499
 287    -0.0005046280335064
 288     0.0000193835313559
 289    -0.0000187185883712
 290    -0.0000079859291511
 291     0.0001593573543839
 292    -0.0004483991928399
 293    -0.0000746002119754
 294    -0.0001858185807395
 295     0.0021101381453834
 296     0.0012983938556808
 297     0.0000259604900508
 298     0.0000136437792663
 299    -0.0002622842743213
 300     0.0011473400272470
 301    -0.0003464042121274
 302     0.0007518253483435
 Ene=  -11.314789
 Spin=  Alpha
 Occup=    2.000000
   1    -0.0000603706853096
   2    -0.0000994623934979
   3     0.0068975046758409
   4    -0.0057564428106735
   5    -0.0000295467351700
   6     0.0000070960493980
   7    -0.0000196049830434
   8    -0.0013823355961481
   9     0.0056135879138371
  10     0.0004465849204817
  11     0.0013126450922416
  12     0.0002425063421585
  13     0.0002278768123534
  14    -0.0000422461282058
  15     0.0000195888954260
  16     0.0000088321819270
  17    -0.0000037235788083
  18    -0.0000290381972136
  19     0.0000650191521854
  20    -0.0000959497525792
  21     0.0001429027260599
  22    -0.0005954767068933
  23    -0.0009124174087865
  24     0.0000606637831449
  25     0.0000931979366463
  26     0.0109870541678211
  27     0.0068225799748794
  28    -0.0001523144085141
  29     0.0000335298798646
  30    -0.0000327525850836
  31    -0.0086740259733295
  32     0.0086036217970670
  33     0.0001085612599192
  34    -0.0019710586398736
  35    -0.0006085006902881
  36    -0.0002244887562174
  37    -0.0000176623541392
  38     0.0000168364879510
  39    -0.0000155961825274
  40     0.0000693693538056
  41    -0.0000065426390989
  42     0.0000208946246199
  43    -0.0000123862803206
  44    -0.0009238345193857
  45     0.0036441154396444
  46    -0.0020891799581369
  47    -0.0002013172159876
  48     0.0000415163185677
  49    -0.0135929873175579
  50    -0.0042894162225472
  51     0.0002330758583239
  52     0.0000474580927856
  53     0.0001321711174623
  54    -0.0111031143931879
  55     0.0040508818085167
  56    -0.0012188882739723
  57    -0.0013249132919498
  58     0.0024027414330669
  59    -0.0002160826705888
  60     0.0000789949359591
  61     0.0000218852618400
  62    -0.0000589592621921
  63     0.0001183688689005
  64     0.0001176291062183
  65     0.0007291284343717
  66     0.0003243212120550
  67     0.0009486172084845
  68    -0.0007285011289511
  69     0.0054022685163204
  70     0.0001881457419946
  71     0.0007296796503998
  72    -0.0043084335409810
  73    -0.0017122174991956
  74    -0.0003023034280734
  75     0.0001500224469035
  76    -0.0001522266583188
  77    -0.0018129969536965
  78    -0.0008808342211670
  79     0.0010891816849704
  80    -0.0025971331229888
  81    -0.0008217708246605
  82     0.0015774390480841
  83    -0.0000177363196548
  84    -0.0001387296895853
  85    -0.0000384746097173
  86    -0.0000965524807803
  87    -0.0000767181902687
  88    -0.0015936885013721
  89    -0.0003317611343552
  90     0.0000863204562981
  91     0.0003729213642937
  92     0.0005491700513015
  93     0.0001158551418163
  94     0.0002631787461084
  95     0.0019243702994578
  96    -0.0002873107683095
  97    -0.0000546162407290