[Molden Format]
[Atoms] Angs
 c       1                    6  2.367620667834e+00 -5.535282253394e-01  6.404975566369e-01
 c       2                    6  2.216249848062e+00  8.731289929472e-01  8.501749037436e-01
 c       3                    6  9.965588126422e-01  1.495535694500e+00  7.049867714954e-01
 n       4                    7 -1.577530912162e-01  7.267708035818e-01  4.930315583956e-01
 b       5                    5 -9.487317884909e-02 -7.288639459562e-01  3.260891485320e-01
 c       6                    6  1.290832563216e+00 -1.383681778425e+00  3.767240902569e-01
 c       7                    6 -1.322550497090e+00 -1.190508894467e+00 -5.508865652657e-01
 c       8                    6 -2.687349342291e+00 -5.973712049622e-01 -5.270641105579e-01
 c       9                    6 -2.405303305561e+00  7.455487186758e-01 -5.930219110311e-01
 c      10                    6 -9.231936246024e-01  6.428421164381e-01 -7.492131326364e-01
 h      11                    1  3.385069972393e+00 -9.648131874583e-01  6.697663915521e-01
 h      12                    1  3.091410708609e+00  1.481378313654e+00  1.093614976137e+00
 h      13                    1  8.714029144102e-01  2.577272114699e+00  8.202162884583e-01
 h      14                    1  1.475631464039e+00 -2.435445997402e+00  1.242221576866e-01
 h      15                    1 -1.110242302449e+00 -2.068608817316e+00 -1.185448896280e+00
 h      16                    1 -3.643086272297e+00 -1.130848427848e+00 -4.802315015137e-01
 h      17                    1 -2.977787742098e+00  1.644080890683e+00 -3.387406091747e-01
 h      18                    1 -3.726375947518e-01  8.671128339929e-01 -1.674717116435e+00
[GTO]
1
 s           8
      6.665000000000e+03      6.915839628130e-04
      1.000000000000e+03      5.325796152934e-03
      2.280000000000e+02      2.706072104203e-02
      6.471000000000e+01      1.016568461408e-01
      2.106000000000e+01      2.745748236174e-01
      7.495000000000e+00      4.482943189238e-01
      2.797000000000e+00      2.849026107152e-01
      5.215000000000e-01      1.519485920608e-02
 s           8
      6.665000000000e+03     -2.932696526865e-04
      1.000000000000e+03     -2.318035473975e-03
      2.280000000000e+02     -1.149978603857e-02
      6.471000000000e+01     -4.682672700979e-02
      2.106000000000e+01     -1.284661687505e-01
      7.495000000000e+00     -3.012662724629e-01
      2.797000000000e+00     -2.556307023301e-01
      5.215000000000e-01      1.093793361012e+00
 s           1
      1.596000000000e-01      1.000000000000e+00
 s           1
      4.690000000000e-02      1.000000000000e+00
 p           3
      9.439000000000e+00      5.697925159004e-02
      2.002000000000e+00      3.132072115007e-01
      5.456000000000e-01      7.603767417375e-01
 p           1
      1.517000000000e-01      1.000000000000e+00
 p           1
      4.041000000000e-02      1.000000000000e+00
 d           1
      5.500000000000e-01      1.000000000000e+00
 d           1
      1.510000000000e-01      1.000000000000e+00

2
 s           8
      6.665000000000e+03      6.915839628130e-04
      1.000000000000e+03      5.325796152934e-03
      2.280000000000e+02      2.706072104203e-02
      6.471000000000e+01      1.016568461408e-01
      2.106000000000e+01      2.745748236174e-01
      7.495000000000e+00      4.482943189238e-01
      2.797000000000e+00      2.849026107152e-01
      5.215000000000e-01      1.519485920608e-02
 s           8
      6.665000000000e+03     -2.932696526865e-04
      1.000000000000e+03     -2.318035473975e-03
      2.280000000000e+02     -1.149978603857e-02
      6.471000000000e+01     -4.682672700979e-02
      2.106000000000e+01     -1.284661687505e-01
      7.495000000000e+00     -3.012662724629e-01
      2.797000000000e+00     -2.556307023301e-01
      5.215000000000e-01      1.093793361012e+00
 s           1
      1.596000000000e-01      1.000000000000e+00
 s           1
      4.690000000000e-02      1.000000000000e+00
 p           3
      9.439000000000e+00      5.697925159004e-02
      2.002000000000e+00      3.132072115007e-01
      5.456000000000e-01      7.603767417375e-01
 p           1
      1.517000000000e-01      1.000000000000e+00
 p           1
      4.041000000000e-02      1.000000000000e+00
 d           1
      5.500000000000e-01      1.000000000000e+00
 d           1
      1.510000000000e-01      1.000000000000e+00

3
 s           8
      6.665000000000e+03      6.915839628130e-04
      1.000000000000e+03      5.325796152934e-03
      2.280000000000e+02      2.706072104203e-02
      6.471000000000e+01      1.016568461408e-01
      2.106000000000e+01      2.745748236174e-01
      7.495000000000e+00      4.482943189238e-01
      2.797000000000e+00      2.849026107152e-01
      5.215000000000e-01      1.519485920608e-02
 s           8
      6.665000000000e+03     -2.932696526865e-04
      1.000000000000e+03     -2.318035473975e-03
      2.280000000000e+02     -1.149978603857e-02
      6.471000000000e+01     -4.682672700979e-02
      2.106000000000e+01     -1.284661687505e-01
      7.495000000000e+00     -3.012662724629e-01
      2.797000000000e+00     -2.556307023301e-01
      5.215000000000e-01      1.093793361012e+00
 s           1
      1.596000000000e-01      1.000000000000e+00
 s           1
      4.690000000000e-02      1.000000000000e+00
 p           3
      9.439000000000e+00      5.697925159004e-02
      2.002000000000e+00      3.132072115007e-01
      5.456000000000e-01      7.603767417375e-01
 p           1
      1.517000000000e-01      1.000000000000e+00
 p           1
      4.041000000000e-02      1.000000000000e+00
 d           1
      5.500000000000e-01      1.000000000000e+00
 d           1
      1.510000000000e-01      1.000000000000e+00

4
 s           8
      9.046000000000e+03      6.996174134255e-04
      1.357000000000e+03      5.386054629929e-03
      3.093000000000e+02      2.739102118906e-02
      8.773000000000e+01      1.031505919820e-01
      2.856000000000e+01      2.785706633174e-01
      1.021000000000e+01      4.482948494541e-01
      3.838000000000e+00      2.780859283953e-01
      7.466000000000e-01      1.543156123327e-02
 s           8
      9.046000000000e+03     -3.049900959534e-04
      1.357000000000e+03     -2.408026378508e-03
      3.093000000000e+02     -1.194444872518e-02
      8.773000000000e+01     -4.892599290902e-02
      2.856000000000e+01     -1.344727247250e-01
      1.021000000000e+01     -3.151125777001e-01
      3.838000000000e+00     -2.428578325496e-01
      7.466000000000e-01      1.094382206854e+00
 s           1
      2.248000000000e-01      1.000000000000e+00
 s           1
      6.124000000000e-02      1.000000000000e+00
 p           3
      1.355000000000e+01      5.890567677213e-02
      2.917000000000e+00      3.204611067143e-01
      7.973000000000e-01      7.530420617921e-01
 p           1
      2.185000000000e-01      1.000000000000e+00
 p           1
      5.611000000000e-02      1.000000000000e+00
 d           1
      8.170000000000e-01      1.000000000000e+00
 d           1
      2.300000000000e-01      1.000000000000e+00

5
 s           8
      4.570000000000e+03      6.955544180306e-04
      6.859000000000e+02      5.349572988100e-03
      1.565000000000e+02      2.711662870523e-02
      4.447000000000e+01      1.013150961206e-01
      1.448000000000e+01      2.718808293065e-01
      5.131000000000e+00      4.481159306152e-01
      1.898000000000e+00      2.899372621010e-01
      3.329000000000e-01      1.431283099861e-02
 s           8
      4.570000000000e+03     -2.812802240142e-04
      6.859000000000e+02     -2.219887811105e-03
      1.565000000000e+02     -1.101647150743e-02
      4.447000000000e+01     -4.434918985248e-02
      1.448000000000e+01     -1.209120479502e-01
      5.131000000000e+00     -2.807378995535e-01
      1.898000000000e+00     -2.660668087326e-01
      3.329000000000e-01      1.091784130514e+00
 s           1
      1.043000000000e-01      1.000000000000e+00
 s           1
      3.105000000000e-02      1.000000000000e+00
 p           3
      6.001000000000e+00      5.416586334015e-02
      1.241000000000e+00      3.023798901809e-01
      3.364000000000e-01      7.712922165481e-01
 p           1
      9.538000000000e-02      1.000000000000e+00
 p           1
      2.378000000000e-02      1.000000000000e+00
 d           1
      3.430000000000e-01      1.000000000000e+00
 d           1
      9.040000000000e-02      1.000000000000e+00

6
 s           8
      6.665000000000e+03      6.915839628130e-04
      1.000000000000e+03      5.325796152934e-03
      2.280000000000e+02      2.706072104203e-02
      6.471000000000e+01      1.016568461408e-01
      2.106000000000e+01      2.745748236174e-01
      7.495000000000e+00      4.482943189238e-01
      2.797000000000e+00      2.849026107152e-01
      5.215000000000e-01      1.519485920608e-02
 s           8
      6.665000000000e+03     -2.932696526865e-04
      1.000000000000e+03     -2.318035473975e-03
      2.280000000000e+02     -1.149978603857e-02
      6.471000000000e+01     -4.682672700979e-02
      2.106000000000e+01     -1.284661687505e-01
      7.495000000000e+00     -3.012662724629e-01
      2.797000000000e+00     -2.556307023301e-01
      5.215000000000e-01      1.093793361012e+00
 s           1
      1.596000000000e-01      1.000000000000e+00
 s           1
      4.690000000000e-02      1.000000000000e+00
 p           3
      9.439000000000e+00      5.697925159004e-02
      2.002000000000e+00      3.132072115007e-01
      5.456000000000e-01      7.603767417375e-01
 p           1
      1.517000000000e-01      1.000000000000e+00
 p           1
      4.041000000000e-02      1.000000000000e+00
 d           1
      5.500000000000e-01      1.000000000000e+00
 d           1
      1.510000000000e-01      1.000000000000e+00

7
 s           8
      6.665000000000e+03      6.915839628130e-04
      1.000000000000e+03      5.325796152934e-03
      2.280000000000e+02      2.706072104203e-02
      6.471000000000e+01      1.016568461408e-01
      2.106000000000e+01      2.745748236174e-01
      7.495000000000e+00      4.482943189238e-01
      2.797000000000e+00      2.849026107152e-01
      5.215000000000e-01      1.519485920608e-02
 s           8
      6.665000000000e+03     -2.932696526865e-04
      1.000000000000e+03     -2.318035473975e-03
      2.280000000000e+02     -1.149978603857e-02
      6.471000000000e+01     -4.682672700979e-02
      2.106000000000e+01     -1.284661687505e-01
      7.495000000000e+00     -3.012662724629e-01
      2.797000000000e+00     -2.556307023301e-01
      5.215000000000e-01      1.093793361012e+00
 s           1
      1.596000000000e-01      1.000000000000e+00
 s           1
      4.690000000000e-02      1.000000000000e+00
 p           3
      9.439000000000e+00      5.697925159004e-02
      2.002000000000e+00      3.132072115007e-01
      5.456000000000e-01      7.603767417375e-01
 p           1
      1.517000000000e-01      1.000000000000e+00
 p           1
      4.041000000000e-02      1.000000000000e+00
 d           1
      5.500000000000e-01      1.000000000000e+00
 d           1
      1.510000000000e-01      1.000000000000e+00

8
 s           8
      6.665000000000e+03      6.915839628130e-04
      1.000000000000e+03      5.325796152934e-03
      2.280000000000e+02      2.706072104203e-02
      6.471000000000e+01      1.016568461408e-01
      2.106000000000e+01      2.745748236174e-01
      7.495000000000e+00      4.482943189238e-01
      2.797000000000e+00      2.849026107152e-01
      5.215000000000e-01      1.519485920608e-02
 s           8
      6.665000000000e+03     -2.932696526865e-04
      1.000000000000e+03     -2.318035473975e-03
      2.280000000000e+02     -1.149978603857e-02
      6.471000000000e+01     -4.682672700979e-02
      2.106000000000e+01     -1.284661687505e-01
      7.495000000000e+00     -3.012662724629e-01
      2.797000000000e+00     -2.556307023301e-01
      5.215000000000e-01      1.093793361012e+00
 s           1
      1.596000000000e-01      1.000000000000e+00
 s           1
      4.690000000000e-02      1.000000000000e+00
 p           3
      9.439000000000e+00      5.697925159004e-02
      2.002000000000e+00      3.132072115007e-01
      5.456000000000e-01      7.603767417375e-01
 p           1
      1.517000000000e-01      1.000000000000e+00
 p           1
      4.041000000000e-02      1.000000000000e+00
 d           1
      5.500000000000e-01      1.000000000000e+00
 d           1
      1.510000000000e-01      1.000000000000e+00

9
 s           8
      6.665000000000e+03      6.915839628130e-04
      1.000000000000e+03      5.325796152934e-03
      2.280000000000e+02      2.706072104203e-02
      6.471000000000e+01      1.016568461408e-01
      2.106000000000e+01      2.745748236174e-01
      7.495000000000e+00      4.482943189238e-01
      2.797000000000e+00      2.849026107152e-01
      5.215000000000e-01      1.519485920608e-02
 s           8
      6.665000000000e+03     -2.932696526865e-04
      1.000000000000e+03     -2.318035473975e-03
      2.280000000000e+02     -1.149978603857e-02
      6.471000000000e+01     -4.682672700979e-02
      2.106000000000e+01     -1.284661687505e-01
      7.495000000000e+00     -3.012662724629e-01
      2.797000000000e+00     -2.556307023301e-01
      5.215000000000e-01      1.093793361012e+00
 s           1
      1.596000000000e-01      1.000000000000e+00
 s           1
      4.690000000000e-02      1.000000000000e+00
 p           3
      9.439000000000e+00      5.697925159004e-02
      2.002000000000e+00      3.132072115007e-01
      5.456000000000e-01      7.603767417375e-01
 p           1
      1.517000000000e-01      1.000000000000e+00
 p           1
      4.041000000000e-02      1.000000000000e+00
 d           1
      5.500000000000e-01      1.000000000000e+00
 d           1
      1.510000000000e-01      1.000000000000e+00

10
 s           8
      6.665000000000e+03      6.915839628130e-04
      1.000000000000e+03      5.325796152934e-03
      2.280000000000e+02      2.706072104203e-02
      6.471000000000e+01      1.016568461408e-01
      2.106000000000e+01      2.745748236174e-01
      7.495000000000e+00      4.482943189238e-01
      2.797000000000e+00      2.849026107152e-01
      5.215000000000e-01      1.519485920608e-02
 s           8
      6.665000000000e+03     -2.932696526865e-04
      1.000000000000e+03     -2.318035473975e-03
      2.280000000000e+02     -1.149978603857e-02
      6.471000000000e+01     -4.682672700979e-02
      2.106000000000e+01     -1.284661687505e-01
      7.495000000000e+00     -3.012662724629e-01
      2.797000000000e+00     -2.556307023301e-01
      5.215000000000e-01      1.093793361012e+00
 s           1
      1.596000000000e-01      1.000000000000e+00
 s           1
      4.690000000000e-02      1.000000000000e+00
 p           3
      9.439000000000e+00      5.697925159004e-02
      2.002000000000e+00      3.132072115007e-01
      5.456000000000e-01      7.603767417375e-01
 p           1
      1.517000000000e-01      1.000000000000e+00
 p           1
      4.041000000000e-02      1.000000000000e+00
 d           1
      5.500000000000e-01      1.000000000000e+00
 d           1
      1.510000000000e-01      1.000000000000e+00

11
 s           3
      1.301000000000e+01      3.349872639000e-02
      1.962000000000e+00      2.348008011741e-01
      4.446000000000e-01      8.136829578829e-01
 s           1
      1.220000000000e-01      1.000000000000e+00
 s           1
      2.974000000000e-02      1.000000000000e+00
 p           1
      7.270000000000e-01      1.000000000000e+00
 p           1
      1.410000000000e-01      1.000000000000e+00

12
 s           3
      1.301000000000e+01      3.349872639000e-02
      1.962000000000e+00      2.348008011741e-01
      4.446000000000e-01      8.136829578829e-01
 s           1
      1.220000000000e-01      1.000000000000e+00
 s           1
      2.974000000000e-02      1.000000000000e+00
 p           1
      7.270000000000e-01      1.000000000000e+00
 p           1
      1.410000000000e-01      1.000000000000e+00

13
 s           3
      1.301000000000e+01      3.349872639000e-02
      1.962000000000e+00      2.348008011741e-01
      4.446000000000e-01      8.136829578829e-01
 s           1
      1.220000000000e-01      1.000000000000e+00
 s           1
      2.974000000000e-02      1.000000000000e+00
 p           1
      7.270000000000e-01      1.000000000000e+00
 p           1
      1.410000000000e-01      1.000000000000e+00

14
 s           3
      1.301000000000e+01      3.349872639000e-02
      1.962000000000e+00      2.348008011741e-01
      4.446000000000e-01      8.136829578829e-01
 s           1
      1.220000000000e-01      1.000000000000e+00
 s           1
      2.974000000000e-02      1.000000000000e+00
 p           1
      7.270000000000e-01      1.000000000000e+00
 p           1
      1.410000000000e-01      1.000000000000e+00

15
 s           3
      1.301000000000e+01      3.349872639000e-02
      1.962000000000e+00      2.348008011741e-01
      4.446000000000e-01      8.136829578829e-01
 s           1
      1.220000000000e-01      1.000000000000e+00
 s           1
      2.974000000000e-02      1.000000000000e+00
 p           1
      7.270000000000e-01      1.000000000000e+00
 p           1
      1.410000000000e-01      1.000000000000e+00

16
 s           3
      1.301000000000e+01      3.349872639000e-02
      1.962000000000e+00      2.348008011741e-01
      4.446000000000e-01      8.136829578829e-01
 s           1
      1.220000000000e-01      1.000000000000e+00
 s           1
      2.974000000000e-02      1.000000000000e+00
 p           1
      7.270000000000e-01      1.000000000000e+00
 p           1
      1.410000000000e-01      1.000000000000e+00

17
 s           3
      1.301000000000e+01      3.349872639000e-02
      1.962000000000e+00      2.348008011741e-01
      4.446000000000e-01      8.136829578829e-01
 s           1
      1.220000000000e-01      1.000000000000e+00
 s           1
      2.974000000000e-02      1.000000000000e+00
 p           1
      7.270000000000e-01      1.000000000000e+00
 p           1
      1.410000000000e-01      1.000000000000e+00

18
 s           3
      1.301000000000e+01      3.349872639000e-02
      1.962000000000e+00      2.348008011741e-01
      4.446000000000e-01      8.136829578829e-01
 s           1
      1.220000000000e-01      1.000000000000e+00
 s           1
      2.974000000000e-02      1.000000000000e+00
 p           1
      7.270000000000e-01      1.000000000000e+00
 p           1
      1.410000000000e-01      1.000000000000e+00


[5D]
[7F]
[9G]
[MO]
 Ene=  -15.588261
 Spin=  Alpha
 Occup=    2.000000
   1     0.0000729659994390
   2     0.0001327021237224
   3    -0.0049689563624751
   4    -0.0066995594866462
   5    -0.0000084743634852
   6    -0.0000014559096118
   7    -0.0000049327160538
   8     0.0012971490557787
   9    -0.0076854271326907
  10    -0.0011739997909483
  11     0.0033492638127554
  12     0.0031837730449541
  13     0.0010709550780073
  14     0.0000010478360782
  15    -0.0000018758251706
  16    -0.0000063390358206
  17     0.0000265400960307
  18    -0.0000016819050548
  19     0.0000496340918846
  20     0.0005489613257799
  21     0.0002690000092706
  22     0.0004097212312850
  23     0.0026111098953250
  24    -0.0000168134984819
  25    -0.0000029766115463
  26    -0.0077787707030454
  27     0.0127374121668011
  28    -0.0000934176765269
  29     0.0000402423688400
  30     0.0000069759872271
  31     0.0047968921338273
  32    -0.0106590394811089
  33    -0.0004121079217000
  34    -0.0048376483636752
  35     0.0023290265688479
  36    -0.0005859627298095
  37     0.0000004063107403
  38     0.0000269405852757
  39     0.0000078928642105
  40     0.0000941628717431
  41     0.0000091885618907
  42    -0.0004752374624388
  43     0.0001414774398169
  44     0.0010324260312981
  45    -0.0025197571103200
  46     0.0033405063151997
  47    -0.0001900747788451
  48    -0.0002970761303026
  49     0.0025383591639037
  50    -0.0259787861662521
  51     0.0002820027123376
  52     0.0001647749462129
  53     0.0000799516289949
  54     0.0149036793515657
  55     0.0033310463302336
  56     0.0024806646177112
  57    -0.0023706176482679
  58     0.0048071560173726
  59     0.0002276868767346
  60     0.0000467775110918
  61     0.0000417862737907
  62     0.0000099599572892
  63     0.0000983420871758
  64     0.0001622249757394
  65     0.0007321424007008
  66    -0.0003193007139087
  67    -0.0012452364230791
  68     0.0022039805234647
  69    -0.0057990716140409
  70    -1.0031936226768896
  71    -0.0055663318123460
  72     0.0282934591746595
  73     0.0178146178483233
  74    -0.0006542870317864
  75    -0.0000898280049659
  76     0.0011505852978992
  77     0.0018909973666266
  78     0.0009849682967607
  79    -0.0046772129939451
  80     0.0043183826456119
  81     0.0010862812206303
  82    -0.0005085262286476
  83     0.0000728964176723
  84    -0.0000523487983528
  85    -0.0000836342231667
  86    -0.0000029078026953
  87    -0.0000951612718029
  88     0.0003463110216043
  89     0.0016174963704442
  90     0.0007568606338685
  91     0.0009943106538719
  92     0.0012061014245334
  93    -0.0003442306307107
  94    -0.0006142152120817
  95    -0.0035010020532888
  96     0.0021846589022655
  97     0.0000244937718559
  98    -0.0003988256502816
  99     0.0000296274957041
 100    -0.0007570417851268
 101     0.0018626294303729
 102     0.0010833947936491
 103     0.0008506400267646
 104     0.0005055800313505
 105     0.0004077589155251
 106     0.0002151669363828
 107     0.0000067313455034
 108     0.0000228155014491
 109    -0.0001220298790750
 110    -0.0000610364096290
 111    -0.0006276222079779
 112    -0.0002350207799985
 113     0.0000932596211302
 114    -0.0012681561173919
 115     0.0002864143946813
 116    -0.0000219259000595
 117    -0.0000106545630745
 118    -0.0029548019869082
 119     0.0092674718893685
 120    -0.0000350105414554
 121     0.0000369037882806
 122     0.0000132945094641
 123    -0.0036217509056042
 124    -0.0002879300486903
 125    -0.0005517842958195
 126     0.0024233899844244
 127     0.0011112764794737
 128     0.0003372510228659
 129    -0.0000701698632362
 130    -0.0000106052497789
 131    -0.0000002121390302
 132    -0.0000428851452314
 133    -0.0000956229531305
 134     0.0001193480211108
 135    -0.0000265093482527
 136     0.0000750467491786
 137    -0.0010865445660324
 138    -0.0004865510023725
 139    -0.0001211396988812
 140    -0.0001759721085857
 141     0.0006578333251892
 142     0.0004864431389259
 143     0.0000332660272984
 144     0.0000339754963759
 145     0.0000171896652835
 146     0.0027366683761823
 147     0.0021384254294353
 148     0.0016785707912649
 149    -0.0007953866619538
 150     0.0000562838580748
 151     0.0005078579957342
 152    -0.0000290693763433
 153     0.0000355469000481
 154     0.0000490373555240
 155    -0.0000925355745654
 156     0.0000970596176146
 157    -0.0001160514926440
 158     0.0004930605346342
 159     0.0006089148469463
 160    -0.0006708337908597
 161     0.0011057982079896
 162    -0.0000772739282003
 163    -0.0001247459598962
 164     0.0032344012548117
 165     0.0011053366188155
 166    -0.0000288340597070
 167     0.0000253162311374
 168    -0.0000020541454159
 169     0.0007932078667744
 170    -0.0005436937223556
 171    -0.0003493102362579
 172     0.0002605155879085
 173     0.0010384447539341
 174     0.0000610948920831
 175    -0.0000582381353090
 176     0.0000320795011330
 177     0.0000247866318806
 178    -0.0000025842679435
 179    -0.0000223945154886
 180    -0.0000098430557002
 181    -0.0001857553446069
 182    -0.0002811934546900
 183     0.0001003107891902
 184    -0.0004762244940889
 185    -0.0000420307845905
 186    -0.0000482653211045
 187    -0.0029885294838802
 188     0.0032461616351895
 189     0.0000279075354319
 190    -0.0000091553877864
 191     0.0000361729263053
 192    -0.0004874735469699
 193     0.0004818750677642
 194     0.0006956596685695
 195     0.0015472336169588
 196     0.0002256437606912
 197     0.0000671690072889
 198    -0.0000869942034825
 199     0.0000853143546486
 200    -0.0000063914880631
 201     0.0001383427116881
 202    -0.0000715647585400
 203     0.0004299319424999
 204     0.0000748299637792
 205    -0.0002489601841081
 206     0.0004296779167138
 207    -0.0003481865984472
 208     0.0001493325831847
 209     0.0002209817693263
 210    -0.0102431262581763
 211    -0.0064460797578637
 212    -0.0002423856159554
 213    -0.0001281813398216
 214    -0.0003499644174078
 215    -0.0052446692580658
 216     0.0022545268236826
 217    -0.0090585296557067
 218     0.0020768398700764
 219    -0.0004483509102917
 220    -0.0017236658438183
 221     0.0000011786911537
 222     0.0000448808269764
 223    -0.0000134782860673
 224    -0.0002242624805290
 225    -0.0000544880979989
 226    -0.0031840735185418
 227    -0.0031912905359681
 228     0.0013480771559726
 229     0.0015253441532513
 230     0.0001131955689232
 231    -0.0000205878688655
 232    -0.0000466016814856
 233    -0.0006229152763681
 234     0.0000111295144929
 235    -0.0000028877337033
 236    -0.0000005687572630
 237    -0.0000653614907662
 238    -0.0004346475670037
 239    -0.0001280927981742
 240    -0.0000474906916056
 241     0.0002591160024101
 242     0.0005215160758098
 243    -0.0000523093699070
 244    -0.0000170365591137
 245    -0.0000188942894251
 246    -0.0004179437135447
 247    -0.0005550826610796
 248    -0.0001747419093335
 249     0.0002425797570647
 250     0.0004942040826764
 251    -0.0018803182647877
 252    -0.0000436880023065
 253    -0.0001155501802589
 254    -0.0000237487525000
 255     0.0014612808145750
 256     0.0003351056393686
 257     0.0002995881766206
 258    -0.0000698914185933
 259    -0.0011907264851527
 260     0.0004469922436616
 261     0.0000121706660183
 262    -0.0000159413717528
 263    -0.0000075712673915
 264     0.0002876480998741
 265    -0.0000503107158252
 266    -0.0001053031985007
 267    -0.0000044693315318
 268     0.0016276656393392
 269     0.0008225074393799
 270     0.0000216031428930
 271    -0.0000020144497991
 272    -0.0000125424787014
 273     0.0003284326630459
 274     0.0006078708969693
 275     0.0001847629413582
 276    -0.0000225902443042
 277    -0.0000918145878378
 278     0.0005215940684417
 279    -0.0000189441641094
 280    -0.0000105068839975
 281     0.0000068600268520
 282    -0.0000835954228360
 283    -0.0001105414617649
 284    -0.0001265959340496
 285     0.0000327745378634
 286    -0.0007137369240867
 287     0.0004793479570661
 288    -0.0000173032698156
 289     0.0000252298732361
 290     0.0000055126404244
 291    -0.0001197050919134
 292     0.0003846756864223
 293     0.0000202698687311
 294     0.0001752124985435
 295    -0.0022424794776697
 296    -0.0008845078540777
 297    -0.0000308479290084
 298    -0.0000065722866413
 299     0.0002217615576040
 300    -0.0010689812101463
 301     0.0003802753048699
 302    -0.0007054602348435
 Ene=  -11.325857
 Spin=  Alpha
 Occup=    2.000000
   1     0.0000456412279497
   2     0.0000840146317234
   3    -0.0056053473131319
   4     0.0021618623315168
   5     0.0000104113740438
   6    -0.0000173905104546
   7     0.0000055033972481
   8    -0.0000465679650104
   9    -0.0053366568502240
  10    -0.0006011029959200
  11    -0.0007114972718094
  12    -0.0004466881199972
  13    -0.0002111230645272
  14     0.0000297926020029
  15    -0.0000169564212139
  16    -0.0000078290776331
  17    -0.0000043182612999
  18     0.0000391630704624
  19    -0.0000595915422998
  20     0.0002335802175617
  21    -0.0002840974935006
  22     0.0010563633564900
  23     0.0008529738629535
  24    -0.0000369420617431
  25    -0.0000572799195814
  26    -0.0090827202379961
  27    -0.0043305719398511
  28     0.0001455882688452
  29    -0.0000378959372819
  30     0.0000334260200220
  31     0.0085601790882277
  32    -0.0076991088133191
  33     0.0005158783511654
  34     0.0014197146865536
  35    -0.0001200234784464
  36     0.0001811875403382
  37     0.0000199272213237
  38    -0.0000219167611513
  39     0.0000046304101959
  40    -0.0000590452752629
  41     0.0000050324919271
  42    -0.0000551462587776
  43    -0.0002616735908411
  44     0.0007192810988533
  45    -0.0035833830292690
  46     0.0016533742509508
  47     0.0001404355807053
  48    -0.0000780488721232
  49     0.0131036339625604
  50     0.0012351903792258
  51    -0.0002733435666126
  52    -0.0000828122154531
  53    -0.0001829387668486
  54     0.0095324380660234
  55    -0.0046558290491448
  56     0.0009112317826902
  57     0.0018695162704852
  58    -0.0017351506195680
  59     0.0004273903794090
  60    -0.0000739113134231
  61     0.0000469123205298
  62     0.0000762751185456
  63    -0.0001111367820474
  64    -0.0000693571245158
  65    -0.0005390648368841
  66     0.0000180226242283
  67    -0.0007323371795036
  68     0.0005780181066210
  69    -0.0046707927008372
  70    -0.0001308458211772
  71    -0.0006240196004909
  72     0.0028920754473831
  73     0.0011682143912891
  74     0.0004675224693571
  75    -0.0001007029385467
  76     0.0000032578500022
  77     0.0016150417886882
  78     0.0007557101829765
  79    -0.0003491328290450
  80     0.0035309157694242
  81     0.0023949307785072
  82    -0.0011270400493386
  83     0.0000174980379136
  84     0.0001154034771047
  85     0.0000570982611816
  86     0.0000845689729079
  87     0.0000796008557232
  88     0.0012141205590438
  89     0.0001365924993101
  90     0.0000640679455356
  91    -0.0006949854874269
  92    -0.0005648173974981
  93     0.0000602458540214
  94     0.0001211361606446
  95    -0.0050949636331602
  96     0.0003811062290926
  97    -0.0001590583492344