 Entering Gaussian System, Link 0=g09
 Initial command:
 /local/gaussian-09.D01/g09/l1.exe "/scratch/481061/CC_PLANAR/Gau-3614874.inp" -scrdir="/scratch/481061/CC_PLANAR/"
 Default CPUs for threads: 0-39
 Default is to use a total of  40 processors:
                               40 via shared-memory
                                1 via Linda
 Entering Link 1 = /local/gaussian-09.D01/g09/l1.exe PID=   3614876.
  
 Copyright (c) 1988,1990,1992,1993,1995,1998,2003,2009,2013,
            Gaussian, Inc.  All Rights Reserved.
  
 This is part of the Gaussian(R) 09 program.  It is based on
 the Gaussian(R) 03 system (copyright 2003, Gaussian, Inc.),
 the Gaussian(R) 98 system (copyright 1998, Gaussian, Inc.),
 the Gaussian(R) 94 system (copyright 1995, Gaussian, Inc.),
 the Gaussian 92(TM) system (copyright 1992, Gaussian, Inc.),
 the Gaussian 90(TM) system (copyright 1990, Gaussian, Inc.),
 the Gaussian 88(TM) system (copyright 1988, Gaussian, Inc.),
 the Gaussian 86(TM) system (copyright 1986, Carnegie Mellon
 University), and the Gaussian 82(TM) system (copyright 1983,
 Carnegie Mellon University). Gaussian is a federally registered
 trademark of Gaussian, Inc.
  
 This software contains proprietary and confidential information,
 including trade secrets, belonging to Gaussian, Inc.
  
 This software is provided under written license and may be
 used, copied, transmitted, or stored only in accord with that
 written license.
  
 The following legend is applicable only to US Government
 contracts under FAR:
  
                    RESTRICTED RIGHTS LEGEND
  
 Use, reproduction and disclosure by the US Government is
 subject to restrictions as set forth in subparagraphs (a)
 and (c) of the Commercial Computer Software - Restricted
 Rights clause in FAR 52.227-19.
  
 Gaussian, Inc.
 340 Quinnipiac St., Bldg. 40, Wallingford CT 06492
  
  
 ---------------------------------------------------------------
 Warning -- This program may not be used in any manner that
 competes with the business of Gaussian, Inc. or will provide
 assistance to any competitor of Gaussian, Inc.  The licensee
 of this program is prohibited from giving any competitor of
 Gaussian, Inc. access to this program.  By using this program,
 the user acknowledges that Gaussian, Inc. is engaged in the
 business of creating and licensing software in the field of
 computational chemistry and represents and warrants to the
 licensee that it is not a competitor of Gaussian, Inc. and that
 it will not use this program in any manner prohibited above.
 ---------------------------------------------------------------
  

 Cite this work as:
 Gaussian 09, Revision D.01,
 M. J. Frisch, G. W. Trucks, H. B. Schlegel, G. E. Scuseria, 
 M. A. Robb, J. R. Cheeseman, G. Scalmani, V. Barone, B. Mennucci, 
 G. A. Petersson, H. Nakatsuji, M. Caricato, X. Li, H. P. Hratchian, 
 A. F. Izmaylov, J. Bloino, G. Zheng, J. L. Sonnenberg, M. Hada, 
 M. Ehara, K. Toyota, R. Fukuda, J. Hasegawa, M. Ishida, T. Nakajima, 
 Y. Honda, O. Kitao, H. Nakai, T. Vreven, J. A. Montgomery, Jr., 
 J. E. Peralta, F. Ogliaro, M. Bearpark, J. J. Heyd, E. Brothers, 
 K. N. Kudin, V. N. Staroverov, T. Keith, R. Kobayashi, J. Normand, 
 K. Raghavachari, A. Rendell, J. C. Burant, S. S. Iyengar, J. Tomasi, 
 M. Cossi, N. Rega, J. M. Millam, M. Klene, J. E. Knox, J. B. Cross, 
 V. Bakken, C. Adamo, J. Jaramillo, R. Gomperts, R. E. Stratmann, 
 O. Yazyev, A. J. Austin, R. Cammi, C. Pomelli, J. W. Ochterski, 
 R. L. Martin, K. Morokuma, V. G. Zakrzewski, G. A. Voth, 
 P. Salvador, J. J. Dannenberg, S. Dapprich, A. D. Daniels, 
 O. Farkas, J. B. Foresman, J. V. Ortiz, J. Cioslowski, 
 and D. J. Fox, Gaussian, Inc., Wallingford CT, 2013.
 
 ******************************************
 Gaussian 09:  ES64L-G09RevD.01 24-Apr-2013
                11-Jun-2026 
 ******************************************
 %oldchk=opt.chk
 %chk=acid.chk
 %mem=90GB
 %nprocshared=40
 Will use up to   40 processors via shared memory.
 Copying data from "opt.chk" to current chk file "acid.chk".
 ----------------------------------------------------------------------
 #p wb97xD/aug-cc-pvdz NMR=CSGT IOp(10/93=1) SCF=(Tight,MaxCycle=512) I
 nt=UltraFine
 ----------------------------------------------------------------------
 1/38=1/1;
 2/12=2,17=6,18=5,40=1/2;
 3/5=16,7=10,11=2,16=1,25=1,30=1,74=-58,75=-5/1,2,8,3;
 4//1;
 5/5=2,7=512,32=2,38=5/2;
 8/6=1,10=90,11=11/1;
 10/13=100,45=4,93=1/2;
 6/7=2,8=2,9=2,10=2,28=1/1;
 99/9=1/99;
 Leave Link    1 at Thu Jun 11 15:59:37 2026, MaxMem= 12079595520 cpu:         2.8
 (Enter /local/gaussian-09.D01/g09/l101.exe)
 ----
 TEST
 ----
 Symbolic Z-matrix:
 Charge =  0 Multiplicity = 1
 C                     2.4354   -0.68942  -0.0003 
 C                     2.42376   0.72894  -0.00009 
 C                     1.23339   1.41075   0.00004 
 C                    -0.00581   0.71149   0.00004 
 C                     0.0058   -0.71064   0.00004 
 C                     1.25595  -1.39018  -0.00016 
 C                    -1.23309  -1.41051  -0.00003 
 C                    -2.42382  -0.72911   0.00009 
 C                    -2.43534   0.68926   0.0003 
 C                    -1.25625   1.39041   0.00017 
 H                     3.38735  -1.22144  -0.00053 
 H                     3.36726   1.27588  -0.00021 
 H                     1.22135   2.502     0.00027 
 H                     1.26215  -2.48147  -0.00037 
 H                    -1.22141  -2.50175  -0.00029 
 H                    -3.36696  -1.27661   0.00019 
 H                    -3.38765   1.2207    0.0005 
 H                    -1.26208   2.48171   0.00036 
 
 NAtoms=     18 NQM=       18 NQMF=       0 NMMI=      0 NMMIF=      0
                NMic=       0 NMicF=      0.
                    Isotopes and Nuclear Properties:
 (Nuclear quadrupole moments (NQMom) in fm**2, nuclear magnetic moments (NMagM)
  in nuclear magnetons)

  Atom         1           2           3           4           5           6           7           8           9          10
 IAtWgt=          12          12          12          12          12          12          12          12          12          12
 AtmWgt=  12.0000000  12.0000000  12.0000000  12.0000000  12.0000000  12.0000000  12.0000000  12.0000000  12.0000000  12.0000000
 NucSpn=           0           0           0           0           0           0           0           0           0           0
 AtZEff=   0.0000000   0.0000000   0.0000000   0.0000000   0.0000000   0.0000000   0.0000000   0.0000000   0.0000000   0.0000000
 NQMom=    0.0000000   0.0000000   0.0000000   0.0000000   0.0000000   0.0000000   0.0000000   0.0000000   0.0000000   0.0000000
 NMagM=    0.0000000   0.0000000   0.0000000   0.0000000   0.0000000   0.0000000   0.0000000   0.0000000   0.0000000   0.0000000
 AtZNuc=   6.0000000   6.0000000   6.0000000   6.0000000   6.0000000   6.0000000   6.0000000   6.0000000   6.0000000   6.0000000

  Atom        11          12          13          14          15          16          17          18
 IAtWgt=           1           1           1           1           1           1           1           1
 AtmWgt=   1.0078250   1.0078250   1.0078250   1.0078250   1.0078250   1.0078250   1.0078250   1.0078250
 NucSpn=           1           1           1           1           1           1           1           1
 AtZEff=   0.0000000   0.0000000   0.0000000   0.0000000   0.0000000   0.0000000   0.0000000   0.0000000
 NQMom=    0.0000000   0.0000000   0.0000000   0.0000000   0.0000000   0.0000000   0.0000000   0.0000000
 NMagM=    2.7928460   2.7928460   2.7928460   2.7928460   2.7928460   2.7928460   2.7928460   2.7928460
 AtZNuc=   1.0000000   1.0000000   1.0000000   1.0000000   1.0000000   1.0000000   1.0000000   1.0000000
 Leave Link  101 at Thu Jun 11 15:59:37 2026, MaxMem= 12079595520 cpu:         3.1
 (Enter /local/gaussian-09.D01/g09/l202.exe)
                          Input orientation:                          
 ---------------------------------------------------------------------
 Center     Atomic      Atomic             Coordinates (Angstroms)
 Number     Number       Type             X           Y           Z
 ---------------------------------------------------------------------
      1          6           0        2.435396   -0.689423   -0.000297
      2          6           0        2.423759    0.728940   -0.000092
      3          6           0        1.233390    1.410747    0.000035
      4          6           0       -0.005811    0.711485    0.000035
      5          6           0        0.005804   -0.710637    0.000035
      6          6           0        1.255946   -1.390177   -0.000159
      7          6           0       -1.233092   -1.410511   -0.000033
      8          6           0       -2.423815   -0.729105    0.000089
      9          6           0       -2.435341    0.689257    0.000299
     10          6           0       -1.256251    1.390405    0.000171
     11          1           0        3.387353   -1.221441   -0.000526
     12          1           0        3.367262    1.275875   -0.000214
     13          1           0        1.221350    2.502001    0.000272
     14          1           0        1.262147   -2.481468   -0.000373
     15          1           0       -1.221413   -2.501754   -0.000292
     16          1           0       -3.366958   -1.276610    0.000191
     17          1           0       -3.387645    1.220703    0.000499
     18          1           0       -1.262080    2.481712    0.000362
 ---------------------------------------------------------------------
                    Distance matrix (angstroms):
                    1          2          3          4          5
     1  C    0.000000
     2  C    1.418411   0.000000
     3  C    2.419821   1.371801   0.000000
     4  C    2.814611   2.429633   1.422880   0.000000
     5  C    2.429685   2.814052   2.450967   1.422169   0.000000
     6  C    1.371918   2.419596   2.801015   2.451329   1.422895
     7  C    3.738686   4.236722   3.747403   2.451344   1.422915
     8  C    4.859373   5.062101   4.237230   2.814612   2.429689
     9  C    5.062098   4.859262   3.739002   2.429632   2.814053
    10  C    4.237209   3.738985   2.489724   1.422861   2.450951
    11  H    1.090534   2.175431   3.401172   3.905095   3.419912
    12  H    2.175033   1.090567   2.138130   3.419965   3.904565
    13  H    3.414542   2.142320   1.091320   2.170685   3.434908
    14  H    2.141947   3.414098   3.892321   3.435501   2.171230
    15  H    4.081274   4.870797   4.618844   3.435490   2.171212
    16  H    5.831989   6.128184   5.327766   3.905103   3.419919
    17  H    6.128327   5.832173   4.624941   3.419957   3.904558
    18  H    4.871081   4.081375   2.715573   2.170695   3.434912
                    6          7          8          9         10
     6  C    0.000000
     7  C    2.489121   0.000000
     8  C    3.738671   1.371909   0.000000
     9  C    4.236702   2.419593   1.418409   0.000000
    10  C    3.747368   2.801012   2.419820   1.371810   0.000000
    11  H    2.138076   4.624312   5.831987   6.128175   5.327739
    12  H    3.400807   5.327281   6.128337   5.832180   4.624931
    13  H    3.892332   4.618662   4.871065   4.081351   2.715539
    14  H    1.091309   2.715358   4.081310   4.870823   4.618845
    15  H    2.715310   1.091306   2.141975   3.414114   3.892315
    16  H    4.624299   2.138063   1.090541   2.175441   3.401184
    17  H    5.327254   3.400792   2.175022   1.090558   2.138139
    18  H    4.618656   3.892331   3.414524   2.142297   1.091323
                   11         12         13         14         15
    11  H    0.000000
    12  H    2.497397   0.000000
    13  H    4.307620   2.471502   0.000000
    14  H    2.470662   4.306871   4.983636   0.000000
    15  H    4.783297   5.943603   5.568182   2.483643   0.000000
    16  H    6.754536   7.201729   5.943944   4.783335   2.470697
    17  H    7.201713   6.755132   4.783781   5.943621   4.306884
    18  H    5.943952   4.783811   2.483513   5.568202   4.983632
                   16         17         18
    16  H    0.000000
    17  H    2.497399   0.000000
    18  H    4.307609   2.471471   0.000000
 Stoichiometry    C10H8
 Framework group  C1[X(C10H8)]
 Deg. of freedom    48
 Full point group                 C1      NOp   1
 Largest Abelian subgroup         C1      NOp   1
 Largest concise Abelian subgroup C1      NOp   1
                         Standard orientation:                         
 ---------------------------------------------------------------------
 Center     Atomic      Atomic             Coordinates (Angstroms)
 Number     Number       Type             X           Y           Z
 ---------------------------------------------------------------------
      1          6           0       -2.429684   -0.709366    0.000303
      2          6           0       -2.429633    0.709045    0.000098
      3          6           0       -1.244873    1.400553   -0.000029
      4          6           0       -0.000002    0.711437   -0.000029
      5          6           0        0.000001   -0.710733   -0.000029
      6          6           0       -1.244549   -1.400462    0.000165
      7          6           0        1.244572   -1.400463    0.000039
      8          6           0        2.429689   -0.709353   -0.000083
      9          6           0        2.429629    0.709055   -0.000293
     10          6           0        1.244851    1.400548   -0.000165
     11          1           0       -3.377263   -1.249143    0.000532
     12          1           0       -3.377572    1.248254    0.000220
     13          1           0       -1.241748    2.491869   -0.000266
     14          1           0       -1.241835   -2.491767    0.000379
     15          1           0        1.241808   -2.491765    0.000298
     16          1           0        3.377273   -1.249136   -0.000185
     17          1           0        3.377560    1.248263   -0.000493
     18          1           0        1.241765    2.491867   -0.000356
 ---------------------------------------------------------------------
 Rotational constants (GHZ):      3.1245824      1.2328616      0.8840452
 Leave Link  202 at Thu Jun 11 15:59:37 2026, MaxMem= 12079595520 cpu:         0.2
 (Enter /local/gaussian-09.D01/g09/l301.exe)
 Standard basis: Aug-CC-pVDZ (5D, 7F)
 Ernie: Thresh=  0.10000D-02 Tol=  0.10000D-05 Strict=F.
 Ernie:  20 primitive shells out of 306 were deleted.
 There are   322 symmetry adapted cartesian basis functions of A   symmetry.
 There are   302 symmetry adapted basis functions of A   symmetry.
   302 basis functions,   518 primitive gaussians,   322 cartesian basis functions
    34 alpha electrons       34 beta electrons
       nuclear repulsion energy       457.6343388850 Hartrees.
 IExCor= 4639 DFT=T Ex+Corr=wB97XD ExCW=0 ScaHFX=  1.000000
 ScaDFX=  1.000000  1.000000  1.000000  1.000000 ScalE2=  1.000000  1.000000
 IRadAn=      5 IRanWt=     -1 IRanGd=            0 ICorTp=0 IEmpDi=121
  HFx wShort=  0.000000 wLong=  0.200000 cFull=  0.222036 cShort=  0.000000 cLong=  0.777964
  DFx wShort=  0.000000 wLong=  0.200000 cFull=  0.000000 cShort=  0.000000 cLong=  1.000000
 NAtoms=   18 NActive=   18 NUniq=   18 SFac= 1.00D+00 NAtFMM=   60 NAOKFM=F Big=F
 Integral buffers will be    131072 words long.
 Raffenetti 2 integral format.
 Two-electron integral symmetry is turned on.
 R6Disp:  Grimme-D2 Dispersion energy=       -0.0090893686 Hartrees.
 Nuclear repulsion after empirical dispersion term =      457.6252495164 Hartrees.
 Leave Link  301 at Thu Jun 11 15:59:37 2026, MaxMem= 12079595520 cpu:         1.8
 (Enter /local/gaussian-09.D01/g09/l302.exe)
 NPDir=0 NMtPBC=     1 NCelOv=     1 NCel=       1 NClECP=     1 NCelD=      1
         NCelK=      1 NCelE2=     1 NClLst=     1 CellRange=     0.0.
 One-electron integrals computed using PRISM.
 NBasis=   302 RedAO= T EigKep=  1.14D-06  NBF=   302
 NBsUse=   301 1.00D-06 EigRej=  8.40D-07 NBFU=   301
 Precomputing XC quadrature grid using
 IXCGrd= 4 IRadAn=           5 IRanWt=          -1 IRanGd=           0 AccXCQ= 0.00D+00.
 Generated NRdTot=       0 NPtTot=           0 NUsed=           0 NTot=          32
 NSgBfM=   322   322   322   322   322 MxSgAt=    18 MxSgA2=    18.
 Leave Link  302 at Thu Jun 11 15:59:38 2026, MaxMem= 12079595520 cpu:        16.2
 (Enter /local/gaussian-09.D01/g09/l308.exe)
 Leave Link  308 at Thu Jun 11 15:59:38 2026, MaxMem= 12079595520 cpu:         2.7
 (Enter /local/gaussian-09.D01/g09/l303.exe)
 DipDrv:  MaxL=1.
 Leave Link  303 at Thu Jun 11 15:59:38 2026, MaxMem= 12079595520 cpu:         2.2
 (Enter /local/gaussian-09.D01/g09/l401.exe)
 ExpMin= 2.97D-02 ExpMax= 6.67D+03 ExpMxC= 2.28D+02 IAcc=3 IRadAn=         5 AccDes= 0.00D+00
 Harris functional with IExCor= 4639 and IRadAn=       5 diagonalized for initial guess.
 HarFok:  IExCor= 4639 AccDes= 0.00D+00 IRadAn=         5 IDoV= 1 UseB2=F ITyADJ=14
 ICtDFT=  3500011 ScaDFX=  1.000000  1.000000  1.000000  1.000000
 FoFCou: FMM=F IPFlag=           0 FMFlag=      100000 FMFlg1=           0
         NFxFlg=           0 DoJE=T BraDBF=F KetDBF=T FulRan=T
         wScrn=  0.000000 ICntrl=     500 IOpCl=  0 I1Cent=   200000004 NGrid=           0
         NMat0=    1 NMatS0=      1 NMatT0=    0 NMatD0=    1 NMtDS0=    0 NMtDT0=    0
 Petite list used in FoFCou.
 Harris En= -368.047707732481    
 JPrj=0 DoOrth=F DoCkMO=F.
 Leave Link  401 at Thu Jun 11 15:59:39 2026, MaxMem= 12079595520 cpu:        43.8
 (Enter /local/gaussian-09.D01/g09/l502.exe)
 Closed shell SCF:
 Using DIIS extrapolation, IDIIS=  1040.
 Integral symmetry usage will be decided dynamically.
 Keep R1 ints in memory in canonical form, NReq=2110824296.
 IVT=      592562 IEndB=      592562 NGot= 12079595520 MDV=  9985620197
 LenX=  9985620197 LenY=  9985516072
 Requested convergence on RMS density matrix=1.00D-08 within 512 cycles.
 Requested convergence on MAX density matrix=1.00D-06.
 Requested convergence on             energy=1.00D-06.
 No special actions if energy rises.
 FoFCou: FMM=F IPFlag=           0 FMFlag=           0 FMFlg1=           0
         NFxFlg=           0 DoJE=F BraDBF=F KetDBF=F FulRan=T
         wScrn=  0.000000 ICntrl=     600 IOpCl=  0 I1Cent=           0 NGrid=           0
         NMat0=    1 NMatS0=  45753 NMatT0=    0 NMatD0=    1 NMtDS0=    0 NMtDT0=    0
 Symmetry not used in FoFCou.

 Cycle   1  Pass 1  IDiag  1:
 E= -385.756601425349    
 DIIS: error= 2.77D-02 at cycle   1 NSaved=   1.
 NSaved= 1 IEnMin= 1 EnMin= -385.756601425349     IErMin= 1 ErrMin= 2.77D-02
 ErrMax= 2.77D-02  0.00D+00 EMaxC= 1.00D-01 BMatC= 1.16D-01 BMatP= 1.16D-01
 IDIUse=3 WtCom= 7.23D-01 WtEn= 2.77D-01
 Coeff-Com:  0.100D+01
 Coeff-En:   0.100D+01
 Coeff:      0.100D+01
 Gap=     0.306 Goal=   None    Shift=    0.000
 GapD=    0.306 DampG=1.000 DampE=0.500 DampFc=0.5000 IDamp=-1.
 Damping current iteration by 5.00D-01
 RMSDP=4.15D-02 MaxDP=1.62D+00              OVMax= 3.68D-02

 Cycle   2  Pass 1  IDiag  1:
 E= -385.775520940840     Delta-E=       -0.018919515491 Rises=F Damp=T
 DIIS: error= 1.41D-02 at cycle   2 NSaved=   2.
 NSaved= 2 IEnMin= 2 EnMin= -385.775520940840     IErMin= 2 ErrMin= 1.41D-02
 ErrMax= 1.41D-02  0.00D+00 EMaxC= 1.00D-01 BMatC= 2.90D-02 BMatP= 1.16D-01
 IDIUse=3 WtCom= 8.59D-01 WtEn= 1.41D-01
 Coeff-Com: -0.879D+00 0.188D+01
 Coeff-En:   0.000D+00 0.100D+01
 Coeff:     -0.756D+00 0.176D+01
 Gap=     0.310 Goal=   None    Shift=    0.000
 RMSDP=2.10D-02 MaxDP=8.40D-01 DE=-1.89D-02 OVMax= 2.37D-02

 Cycle   3  Pass 1  IDiag  1:
 E= -385.793129854597     Delta-E=       -0.017608913757 Rises=F Damp=F
 DIIS: error= 2.60D-03 at cycle   3 NSaved=   3.
 NSaved= 3 IEnMin= 3 EnMin= -385.793129854597     IErMin= 3 ErrMin= 2.60D-03
 ErrMax= 2.60D-03  0.00D+00 EMaxC= 1.00D-01 BMatC= 1.56D-03 BMatP= 2.90D-02
 IDIUse=3 WtCom= 9.74D-01 WtEn= 2.60D-02
 Coeff-Com: -0.359D+00 0.704D+00 0.655D+00
 Coeff-En:   0.000D+00 0.000D+00 0.100D+01
 Coeff:     -0.350D+00 0.686D+00 0.664D+00
 Gap=     0.309 Goal=   None    Shift=    0.000
 RMSDP=3.52D-03 MaxDP=1.20D-01 DE=-1.76D-02 OVMax= 1.10D-02

 Cycle   4  Pass 1  IDiag  1:
 E= -385.794683504035     Delta-E=       -0.001553649438 Rises=F Damp=F
 DIIS: error= 8.04D-04 at cycle   4 NSaved=   4.
 NSaved= 4 IEnMin= 4 EnMin= -385.794683504035     IErMin= 4 ErrMin= 8.04D-04
 ErrMax= 8.04D-04  0.00D+00 EMaxC= 1.00D-01 BMatC= 7.20D-05 BMatP= 1.56D-03
 IDIUse=3 WtCom= 9.92D-01 WtEn= 8.04D-03
 Coeff-Com: -0.152D+00 0.295D+00 0.311D+00 0.545D+00
 Coeff-En:   0.000D+00 0.000D+00 0.000D+00 0.100D+01
 Coeff:     -0.150D+00 0.293D+00 0.309D+00 0.549D+00
 Gap=     0.309 Goal=   None    Shift=    0.000
 RMSDP=4.36D-04 MaxDP=2.06D-02 DE=-1.55D-03 OVMax= 3.20D-03

 Cycle   5  Pass 1  IDiag  1:
 E= -385.794760293132     Delta-E=       -0.000076789097 Rises=F Damp=F
 DIIS: error= 1.92D-04 at cycle   5 NSaved=   5.
 NSaved= 5 IEnMin= 5 EnMin= -385.794760293132     IErMin= 5 ErrMin= 1.92D-04
 ErrMax= 1.92D-04  0.00D+00 EMaxC= 1.00D-01 BMatC= 3.44D-06 BMatP= 7.20D-05
 IDIUse=3 WtCom= 9.98D-01 WtEn= 1.92D-03
 Coeff-Com:  0.492D-01-0.972D-01-0.881D-01 0.923D-01 0.104D+01
 Coeff-En:   0.000D+00 0.000D+00 0.000D+00 0.000D+00 0.100D+01
 Coeff:      0.491D-01-0.970D-01-0.879D-01 0.921D-01 0.104D+01
 Gap=     0.310 Goal=   None    Shift=    0.000
 RMSDP=2.99D-04 MaxDP=1.31D-02 DE=-7.68D-05 OVMax= 1.87D-03

 Cycle   6  Pass 1  IDiag  1:
 E= -385.794767908803     Delta-E=       -0.000007615671 Rises=F Damp=F
 DIIS: error= 5.30D-05 at cycle   6 NSaved=   6.
 NSaved= 6 IEnMin= 6 EnMin= -385.794767908803     IErMin= 6 ErrMin= 5.30D-05
 ErrMax= 5.30D-05  0.00D+00 EMaxC= 1.00D-01 BMatC= 1.04D-07 BMatP= 3.44D-06
 IDIUse=1 WtCom= 1.00D+00 WtEn= 0.00D+00
 Coeff-Com:  0.805D-02-0.158D-01-0.156D-01-0.758D-02 0.870D-01 0.944D+00
 Coeff:      0.805D-02-0.158D-01-0.156D-01-0.758D-02 0.870D-01 0.944D+00
 Gap=     0.310 Goal=   None    Shift=    0.000
 RMSDP=2.89D-05 MaxDP=1.57D-03 DE=-7.62D-06 OVMax= 3.91D-04

 Cycle   7  Pass 1  IDiag  1:
 E= -385.794768289821     Delta-E=       -0.000000381018 Rises=F Damp=F
 DIIS: error= 2.17D-05 at cycle   7 NSaved=   7.
 NSaved= 7 IEnMin= 7 EnMin= -385.794768289821     IErMin= 7 ErrMin= 2.17D-05
 ErrMax= 2.17D-05  0.00D+00 EMaxC= 1.00D-01 BMatC= 3.56D-08 BMatP= 1.04D-07
 IDIUse=1 WtCom= 1.00D+00 WtEn= 0.00D+00
 Coeff-Com: -0.677D-02 0.134D-01 0.115D-01-0.197D-01-0.162D+00 0.327D+00
 Coeff-Com:  0.837D+00
 Coeff:     -0.677D-02 0.134D-01 0.115D-01-0.197D-01-0.162D+00 0.327D+00
 Coeff:      0.837D+00
 Gap=     0.310 Goal=   None    Shift=    0.000
 RMSDP=1.70D-05 MaxDP=7.54D-04 DE=-3.81D-07 OVMax= 2.31D-04

 Cycle   8  Pass 1  IDiag  1:
 E= -385.794768390394     Delta-E=       -0.000000100573 Rises=F Damp=F
 DIIS: error= 8.20D-06 at cycle   8 NSaved=   8.
 NSaved= 8 IEnMin= 8 EnMin= -385.794768390394     IErMin= 8 ErrMin= 8.20D-06
 ErrMax= 8.20D-06  0.00D+00 EMaxC= 1.00D-01 BMatC= 3.31D-09 BMatP= 3.56D-08
 IDIUse=1 WtCom= 1.00D+00 WtEn= 0.00D+00
 Coeff-Com: -0.281D-02 0.555D-02 0.505D-02-0.368D-02-0.496D-01-0.102D+00
 Coeff-Com:  0.173D+00 0.974D+00
 Coeff:     -0.281D-02 0.555D-02 0.505D-02-0.368D-02-0.496D-01-0.102D+00
 Coeff:      0.173D+00 0.974D+00
 Gap=     0.310 Goal=   None    Shift=    0.000
 RMSDP=7.34D-06 MaxDP=3.59D-04 DE=-1.01D-07 OVMax= 8.88D-05

 Cycle   9  Pass 1  IDiag  1:
 E= -385.794768402491     Delta-E=       -0.000000012097 Rises=F Damp=F
 DIIS: error= 9.35D-07 at cycle   9 NSaved=   9.
 NSaved= 9 IEnMin= 9 EnMin= -385.794768402491     IErMin= 9 ErrMin= 9.35D-07
 ErrMax= 9.35D-07  0.00D+00 EMaxC= 1.00D-01 BMatC= 5.15D-11 BMatP= 3.31D-09
 IDIUse=1 WtCom= 1.00D+00 WtEn= 0.00D+00
 Coeff-Com:  0.601D-03-0.119D-02-0.102D-02 0.143D-02 0.130D-01-0.341D-02
 Coeff-Com: -0.603D-01-0.108D+00 0.116D+01
 Coeff:      0.601D-03-0.119D-02-0.102D-02 0.143D-02 0.130D-01-0.341D-02
 Coeff:     -0.603D-01-0.108D+00 0.116D+01
 Gap=     0.310 Goal=   None    Shift=    0.000
 RMSDP=1.11D-06 MaxDP=3.99D-05 DE=-1.21D-08 OVMax= 1.11D-05

 Cycle  10  Pass 1  IDiag  1:
 E= -385.794768402741     Delta-E=       -0.000000000250 Rises=F Damp=F
 DIIS: error= 1.49D-07 at cycle  10 NSaved=  10.
 NSaved=10 IEnMin=10 EnMin= -385.794768402741     IErMin=10 ErrMin= 1.49D-07
 ErrMax= 1.49D-07  0.00D+00 EMaxC= 1.00D-01 BMatC= 1.57D-12 BMatP= 5.15D-11
 IDIUse=1 WtCom= 1.00D+00 WtEn= 0.00D+00
 Coeff-Com: -0.272D-04 0.548D-04 0.402D-04-0.126D-03-0.107D-02 0.432D-02
 Coeff-Com:  0.378D-02-0.713D-02-0.179D+00 0.118D+01
 Coeff:     -0.272D-04 0.548D-04 0.402D-04-0.126D-03-0.107D-02 0.432D-02
 Coeff:      0.378D-02-0.713D-02-0.179D+00 0.118D+01
 Gap=     0.310 Goal=   None    Shift=    0.000
 RMSDP=3.29D-07 MaxDP=1.56D-05 DE=-2.50D-10 OVMax= 1.41D-06

 Cycle  11  Pass 1  IDiag  1:
 E= -385.794768402755     Delta-E=       -0.000000000014 Rises=F Damp=F
 DIIS: error= 1.93D-08 at cycle  11 NSaved=  11.
 NSaved=11 IEnMin=11 EnMin= -385.794768402755     IErMin=11 ErrMin= 1.93D-08
 ErrMax= 1.93D-08  0.00D+00 EMaxC= 1.00D-01 BMatC= 5.67D-14 BMatP= 1.57D-12
 IDIUse=1 WtCom= 1.00D+00 WtEn= 0.00D+00
 Coeff-Com: -0.196D-04 0.389D-04 0.333D-04-0.460D-04-0.449D-03 0.331D-03
 Coeff-Com:  0.175D-02 0.290D-02-0.441D-01 0.391D-01 0.100D+01
 Coeff:     -0.196D-04 0.389D-04 0.333D-04-0.460D-04-0.449D-03 0.331D-03
 Coeff:      0.175D-02 0.290D-02-0.441D-01 0.391D-01 0.100D+01
 Gap=     0.310 Goal=   None    Shift=    0.000
 RMSDP=4.45D-08 MaxDP=1.85D-06 DE=-1.40D-11 OVMax= 2.06D-07

 Cycle  12  Pass 1  IDiag  1:
 E= -385.794768402750     Delta-E=        0.000000000005 Rises=F Damp=F
 DIIS: error= 7.91D-09 at cycle  12 NSaved=  12.
 NSaved=12 IEnMin=11 EnMin= -385.794768402755     IErMin=12 ErrMin= 7.91D-09
 ErrMax= 7.91D-09  0.00D+00 EMaxC= 1.00D-01 BMatC= 1.61D-14 BMatP= 5.67D-14
 IDIUse=1 WtCom= 1.00D+00 WtEn= 0.00D+00
 Coeff-Com: -0.617D-05 0.122D-04 0.107D-04-0.113D-04-0.117D-03-0.826D-04
 Coeff-Com:  0.487D-03 0.152D-02-0.773D-02-0.471D-01 0.395D+00 0.658D+00
 Coeff:     -0.617D-05 0.122D-04 0.107D-04-0.113D-04-0.117D-03-0.826D-04
 Coeff:      0.487D-03 0.152D-02-0.773D-02-0.471D-01 0.395D+00 0.658D+00
 Gap=     0.310 Goal=   None    Shift=    0.000
 RMSDP=8.45D-09 MaxDP=3.63D-07 DE= 4.89D-12 OVMax= 6.09D-08

 SCF Done:  E(RwB97XD) =  -385.794768403     A.U. after   12 cycles
            NFock= 12  Conv=0.84D-08     -V/T= 2.0063
 KE= 3.833829330932D+02 PE=-1.809177572168D+03 EE= 5.823746211553D+02
 Leave Link  502 at Thu Jun 11 16:00:24 2026, MaxMem= 12079595520 cpu:      1064.4
 (Enter /local/gaussian-09.D01/g09/l801.exe)
 DoSCS=F DFT=T ScalE2(SS,OS)=  1.000000  1.000000
 Range of M.O.s used for correlation:     1   301
 NBasis=   302 NAE=    34 NBE=    34 NFC=     0 NFV=     0
 NROrb=    301 NOA=    34 NOB=    34 NVA=   267 NVB=   267

 **** Warning!!: The largest alpha MO coefficient is  0.22435507D+03

 Leave Link  801 at Thu Jun 11 16:00:25 2026, MaxMem= 12079595520 cpu:         0.7
 (Enter /local/gaussian-09.D01/g09/l1002.exe)
 Minotr:  Closed shell wavefunction.
          Direct CPHF calculation.
          Differentiating once with respect to magnetic field.
          Electric field/nuclear overlap derivatives assumed to be zero.
          Requested convergence is 1.0D-08 RMS, and 1.0D-07 maximum.
          Secondary convergence is 1.0D-12 RMS, and 1.0D-12 maximum.
          NewPWx=T KeepS1=F KeepF1=F KeepIn=T MapXYZ=F SortEE=F KeepMc=T.
          MDV=   12079595071 using IRadAn=       1.
 Generate precomputed XC quadrature information.
 Keep R3 ints in memory in canonical form, NReq=2110239492.
 FoFCou: FMM=F IPFlag=           0 FMFlag=           0 FMFlg1=           0
         NFxFlg=           0 DoJE=F BraDBF=F KetDBF=F FulRan=T
         wScrn=  0.000000 ICntrl=     600 IOpCl=  0 I1Cent=           0 NGrid=           0
         NMat0=    1 NMatS0=  45753 NMatT0=    0 NMatD0=    1 NMtDS0=    0 NMtDT0=    0
 Symmetry not used in FoFCou.
          Solving linear equations simultaneously, MaxMat=       0.
          There are     6 degrees of freedom in the 1st order CPHF.  IDoFFX=0 NUNeed=     6.
      6 vectors produced by pass  0 Test12= 1.51D-13 1.67D-08 XBig12= 1.59D+02 2.99D+00.
 AX will form     6 AO Fock derivatives at one time.
      6 vectors produced by pass  1 Test12= 1.51D-13 1.67D-08 XBig12= 9.73D-01 5.49D-01.
      6 vectors produced by pass  2 Test12= 1.51D-13 1.67D-08 XBig12= 2.76D-02 7.60D-02.
      6 vectors produced by pass  3 Test12= 1.51D-13 1.67D-08 XBig12= 2.58D-04 4.83D-03.
      6 vectors produced by pass  4 Test12= 1.51D-13 1.67D-08 XBig12= 2.46D-06 7.34D-04.
      6 vectors produced by pass  5 Test12= 1.51D-13 1.67D-08 XBig12= 3.16D-08 8.89D-05.
      6 vectors produced by pass  6 Test12= 1.51D-13 1.67D-08 XBig12= 2.75D-10 4.59D-06.
      6 vectors produced by pass  7 Test12= 1.51D-13 1.67D-08 XBig12= 1.71D-12 3.52D-07.
      3 vectors produced by pass  8 Test12= 1.51D-13 1.67D-08 XBig12= 1.71D-14 3.75D-08.
 InvSVY:  IOpt=1 It=  1 EMax= 2.66D-15
 Solved reduced A of dimension    51 with     6 vectors.
 Calculating magnetic properties, IRadAn=         5.
 Writing AICD file "ACID_GRID.txt"
 There are a total of      417660 grid points.
 ElSum from         orbitals=     1640.0751115499

     Magnetic properties (CSGT method)

 Magnetic susceptibility (cgs-ppm):
   Isotropic =   -93.8119   Anisotropy=    65.2731
   XX=   -54.0665   YX=     0.0004   ZX=    -0.0105
   XY=     0.0004   YY=   -50.2965   ZY=    -0.0112
   XZ=    -0.0104   YZ=    -0.0111   ZZ=  -177.0727
   Eigenvalues:  -177.0727   -54.0665   -50.2965
 Magnetic shielding (ppm):
      1  C    Isotropic =    66.7508   Anisotropy =   170.9031
   XX=    -2.6367   YX=   -43.8976   ZX=     0.0360
   XY=   -46.0048   YY=    22.2030   ZY=     0.0276
   XZ=     0.0475   YZ=     0.0313   ZZ=   180.6862
   Eigenvalues:   -36.8523    56.4186   180.6862
      2  C    Isotropic =    66.7874   Anisotropy =   170.8835
   XX=    -2.6333   YX=    43.8029   ZX=     0.0190
   XY=    45.9139   YY=    22.2859   ZY=     0.0106
   XZ=     0.0119   YZ=     0.0071   ZZ=   180.7098
   Eigenvalues:   -36.7303    56.3829   180.7098
      3  C    Isotropic =    64.6810   Anisotropy =   155.0429
   XX=    55.6291   YX=    16.9937   ZX=     0.0033
   XY=    14.8099   YY=   -29.6291   ZY=     0.0312
   XZ=     0.0060   YZ=     0.0074   ZZ=   168.0429
   Eigenvalues:   -32.4984    58.4985   168.0429
      4  C    Isotropic =    59.0309   Anisotropy =   206.0309
   XX=   -12.8416   YX=    -0.0017   ZX=     0.0106
   XY=    -0.0009   YY=    -6.4505   ZY=     0.0073
   XZ=     0.0121   YZ=     0.0305   ZZ=   196.3849
   Eigenvalues:   -12.8416    -6.4505   196.3849
      5  C    Isotropic =    59.0239   Anisotropy =   206.0272
   XX=   -12.8324   YX=    -0.0025   ZX=     0.0099
   XY=    -0.0009   YY=    -6.4712   ZY=     0.0128
   XZ=     0.0118   YZ=     0.0367   ZZ=   196.3754
   Eigenvalues:   -12.8324    -6.4712   196.3754
      6  C    Isotropic =    64.6138   Anisotropy =   155.0827
   XX=    55.6078   YX=   -17.0653   ZX=     0.0188
   XY=   -14.8606   YY=   -29.7686   ZY=     0.0296
   XZ=     0.0155   YZ=     0.0428   ZZ=   168.0023
   Eigenvalues:   -32.6556    58.4948   168.0023
      7  C    Isotropic =    64.6128   Anisotropy =   155.0815
   XX=    55.6077   YX=    17.0628   ZX=    -0.0008
   XY=    14.8560   YY=   -29.7697   ZY=     0.0375
   XZ=     0.0056   YZ=     0.0185   ZZ=   168.0004
   Eigenvalues:   -32.6555    58.4934   168.0004
      8  C    Isotropic =    66.7520   Anisotropy =   170.9025
   XX=    -2.6346   YX=    43.8951   ZX=     0.0152
   XY=    46.0043   YY=    22.2036   ZY=     0.0129
   XZ=     0.0046   YZ=     0.0085   ZZ=   180.6870
   Eigenvalues:   -36.8493    56.4183   180.6870
      9  C    Isotropic =    66.7870   Anisotropy =   170.8840
   XX=    -2.6342   YX=   -43.8052   ZX=     0.0314
   XY=   -45.9139   YY=    22.2856   ZY=     0.0255
   XZ=     0.0405   YZ=     0.0299   ZZ=   180.7097
   Eigenvalues:   -36.7321    56.3835   180.7097
     10  C    Isotropic =    64.6819   Anisotropy =   155.0442
   XX=    55.6291   YX=   -16.9955   ZX=     0.0150
   XY=   -14.8134   YY=   -29.6280   ZY=     0.0241
   XZ=     0.0150   YZ=     0.0310   ZZ=   168.0447
   Eigenvalues:   -32.4983    58.4994   168.0447
     11  H    Isotropic =    23.7315   Anisotropy =     5.2717
   XX=    25.2182   YX=    -1.4887   ZX=    -0.0002
   XY=    -1.6889   YY=    26.0012   ZY=    -0.0003
   XZ=    -0.0006   YZ=    -0.0007   ZZ=    19.9751
   Eigenvalues:    19.9751    23.9734    27.2460
     12  H    Isotropic =    23.7330   Anisotropy =     5.2674
   XX=    25.2188   YX=     1.4838   ZX=    -0.0003
   XY=     1.6813   YY=    26.0082   ZY=    -0.0010
   XZ=    -0.0008   YZ=    -0.0003   ZZ=    19.9719
   Eigenvalues:    19.9719    23.9824    27.2446
     13  H    Isotropic =    23.3117   Anisotropy =     6.9524
   XX=    27.8868   YX=     0.3938   ZX=    -0.0009
   XY=     0.6868   YY=    23.0645   ZY=     0.0002
   XZ=    -0.0002   YZ=    -0.0018   ZZ=    18.9838
   Eigenvalues:    18.9838    23.0047    27.9466
     14  H    Isotropic =    23.3101   Anisotropy =     6.9602
   XX=    27.8887   YX=    -0.4048   ZX=    -0.0007
   XY=    -0.6920   YY=    23.0581   ZY=     0.0002
   XZ=    -0.0010   YZ=    -0.0003   ZZ=    18.9834
   Eigenvalues:    18.9834    22.9967    27.9502
     15  H    Isotropic =    23.3101   Anisotropy =     6.9602
   XX=    27.8889   YX=     0.4043   ZX=    -0.0009
   XY=     0.6915   YY=    23.0579   ZY=     0.0003
   XZ=     0.0001   YZ=    -0.0018   ZZ=    18.9835
   Eigenvalues:    18.9835    22.9966    27.9502
     16  H    Isotropic =    23.7315   Anisotropy =     5.2715
   XX=    25.2184   YX=     1.4885   ZX=    -0.0003
   XY=     1.6887   YY=    26.0010   ZY=    -0.0010
   XZ=    -0.0006   YZ=    -0.0004   ZZ=    19.9749
   Eigenvalues:    19.9749    23.9736    27.2458
     17  H    Isotropic =    23.7331   Anisotropy =     5.2675
   XX=    25.2186   YX=    -1.4840   ZX=    -0.0002
   XY=    -1.6815   YY=    26.0084   ZY=    -0.0003
   XZ=    -0.0005   YZ=    -0.0007   ZZ=    19.9721
   Eigenvalues:    19.9721    23.9823    27.2448
     18  H    Isotropic =    23.3117   Anisotropy =     6.9524
   XX=    27.8868   YX=    -0.3943   ZX=    -0.0006
   XY=    -0.6873   YY=    23.0647   ZY=     0.0001
   XZ=    -0.0008   YZ=    -0.0003   ZZ=    18.9837
   Eigenvalues:    18.9837    23.0048    27.9467
 Current density tensor (au):
   XX=     0.0000   YX=     0.0000   ZX=     0.0000
   XY=     0.0000   YY=     0.0000   ZY=     0.0000
   XZ=     0.0000   YZ=     0.0000   ZZ=     0.0000
 End of Minotr F.D. properties file   721 does not exist.
 End of Minotr F.D. properties file   722 does not exist.
 End of Minotr F.D. properties file   788 does not exist.
 Leave Link 1002 at Thu Jun 11 16:01:46 2026, MaxMem= 12079595520 cpu:      1465.7
 (Enter /local/gaussian-09.D01/g09/l601.exe)
 Copying SCF densities to generalized density rwf, IOpCl= 0 IROHF=0.

 **********************************************************************

            Population analysis using the SCF density.

 **********************************************************************

 Orbital symmetries:
       Occupied  (A) (A) (A) (A) (A) (A) (A) (A) (A) (A) (A) (A)
                 (A) (A) (A) (A) (A) (A) (A) (A) (A) (A) (A) (A)
                 (A) (A) (A) (A) (A) (A) (A) (A) (A) (A)
       Virtual   (A) (A) (A) (A) (A) (A) (A) (A) (A) (A) (A) (A)
                 (A) (A) (A) (A) (A) (A) (A) (A) (A) (A) (A) (A)
                 (A) (A) (A) (A) (A) (A) (A) (A) (A) (A) (A) (A)
                 (A) (A) (A) (A) (A) (A) (A) (A) (A) (A) (A) (A)
                 (A) (A) (A) (A) (A) (A) (A) (A) (A) (A) (A) (A)
                 (A) (A) (A) (A) (A) (A) (A) (A) (A) (A) (A) (A)
                 (A) (A) (A) (A) (A) (A) (A) (A) (A) (A) (A) (A)
                 (A) (A) (A) (A) (A) (A) (A) (A) (A) (A) (A) (A)
                 (A) (A) (A) (A) (A) (A) (A) (A) (A) (A) (A) (A)
                 (A) (A) (A) (A) (A) (A) (A) (A) (A) (A) (A) (A)
                 (A) (A) (A) (A) (A) (A) (A) (A) (A) (A) (A) (A)
                 (A) (A) (A) (A) (A) (A) (A) (A) (A) (A) (A) (A)
                 (A) (A) (A) (A) (A) (A) (A) (A) (A) (A) (A) (A)
                 (A) (A) (A) (A) (A) (A) (A) (A) (A) (A) (A) (A)
                 (A) (A) (A) (A) (A) (A) (A) (A) (A) (A) (A) (A)
                 (A) (A) (A) (A) (A) (A) (A) (A) (A) (A) (A) (A)
                 (A) (A) (A) (A) (A) (A) (A) (A) (A) (A) (A) (A)
                 (A) (A) (A) (A) (A) (A) (A) (A) (A) (A) (A) (A)
                 (A) (A) (A) (A) (A) (A) (A) (A) (A) (A) (A) (A)
                 (A) (A) (A) (A) (A) (A) (A) (A) (A) (A) (A) (A)
                 (A) (A) (A) (A) (A) (A) (A) (A) (A) (A) (A) (A)
                 (A) (A) (A) (A) (A) (A) (A) (A) (A) (A) (A) (A)
                 (A) (A) (A)
 The electronic state is 1-A.
 Alpha  occ. eigenvalues --  -10.31306 -10.31262 -10.30616 -10.30613 -10.30592
 Alpha  occ. eigenvalues --  -10.30590 -10.30542 -10.30540 -10.30524 -10.30523
 Alpha  occ. eigenvalues --   -0.98289  -0.92842  -0.87865  -0.84540  -0.82323
 Alpha  occ. eigenvalues --   -0.72390  -0.71020  -0.69448  -0.60874  -0.60304
 Alpha  occ. eigenvalues --   -0.58679  -0.53753  -0.53156  -0.50487  -0.50474
 Alpha  occ. eigenvalues --   -0.48777  -0.48739  -0.45357  -0.42155  -0.41980
 Alpha  occ. eigenvalues --   -0.41383  -0.37161  -0.32237  -0.29401
 Alpha virt. eigenvalues --    0.01578   0.03679   0.04021   0.04193   0.04321
 Alpha virt. eigenvalues --    0.05437   0.05659   0.07080   0.07328   0.07696
 Alpha virt. eigenvalues --    0.09650   0.10277   0.10983   0.11397   0.12228
 Alpha virt. eigenvalues --    0.12998   0.13003   0.13916   0.14000   0.14345
 Alpha virt. eigenvalues --    0.14371   0.14743   0.14786   0.15706   0.15903
 Alpha virt. eigenvalues --    0.16278   0.17017   0.17820   0.18606   0.18733
 Alpha virt. eigenvalues --    0.19153   0.19232   0.19693   0.20249   0.20450
 Alpha virt. eigenvalues --    0.20580   0.23446   0.24021   0.24714   0.25064
 Alpha virt. eigenvalues --    0.25532   0.26498   0.27334   0.27857   0.28325
 Alpha virt. eigenvalues --    0.28990   0.29144   0.29308   0.29826   0.30617
 Alpha virt. eigenvalues --    0.30691   0.32259   0.32309   0.32539   0.33084
 Alpha virt. eigenvalues --    0.33298   0.33479   0.33955   0.34563   0.34872
 Alpha virt. eigenvalues --    0.35548   0.36375   0.38414   0.38904   0.39242
 Alpha virt. eigenvalues --    0.39650   0.39895   0.41008   0.42415   0.42869
 Alpha virt. eigenvalues --    0.42959   0.43462   0.44387   0.46065   0.47907
 Alpha virt. eigenvalues --    0.48928   0.49609   0.49730   0.50290   0.50552
 Alpha virt. eigenvalues --    0.51639   0.52132   0.53557   0.55481   0.56377
 Alpha virt. eigenvalues --    0.56435   0.57054   0.57320   0.57736   0.59085
 Alpha virt. eigenvalues --    0.59130   0.60394   0.61624   0.62445   0.63260
 Alpha virt. eigenvalues --    0.63291   0.63391   0.64545   0.64665   0.64835
 Alpha virt. eigenvalues --    0.65237   0.65565   0.66152   0.67273   0.67693
 Alpha virt. eigenvalues --    0.67755   0.69047   0.69428   0.70551   0.70599
 Alpha virt. eigenvalues --    0.70805   0.71170   0.72239   0.73314   0.73673
 Alpha virt. eigenvalues --    0.74876   0.75062   0.76842   0.77274   0.80861
 Alpha virt. eigenvalues --    0.81197   0.82264   0.82471   0.82617   0.82636
 Alpha virt. eigenvalues --    0.83654   0.83807   0.84511   0.84850   0.85026
 Alpha virt. eigenvalues --    0.85508   0.85934   0.86745   0.89931   0.90260
 Alpha virt. eigenvalues --    0.92049   0.92311   0.92659   0.93352   0.96662
 Alpha virt. eigenvalues --    0.97471   0.98569   0.99007   0.99394   1.02119
 Alpha virt. eigenvalues --    1.05429   1.06998   1.08502   1.10912   1.13741
 Alpha virt. eigenvalues --    1.14448   1.16884   1.18278   1.19249   1.22724
 Alpha virt. eigenvalues --    1.24259   1.31348   1.33605   1.34240   1.34802
 Alpha virt. eigenvalues --    1.35386   1.36421   1.38344   1.39425   1.39890
 Alpha virt. eigenvalues --    1.41337   1.41579   1.44035   1.46836   1.47177
 Alpha virt. eigenvalues --    1.47448   1.47590   1.48564   1.48612   1.50463
 Alpha virt. eigenvalues --    1.50981   1.51419   1.52691   1.53929   1.59510
 Alpha virt. eigenvalues --    1.59690   1.59727   1.59912   1.61767   1.62652
 Alpha virt. eigenvalues --    1.62787   1.63166   1.64399   1.67781   1.69007
 Alpha virt. eigenvalues --    1.69832   1.72609   1.72991   1.74624   1.76988
 Alpha virt. eigenvalues --    1.77488   1.78806   1.79053   1.79411   1.80811
 Alpha virt. eigenvalues --    1.81072   1.85155   1.86716   1.87125   1.88839
 Alpha virt. eigenvalues --    1.89665   1.90193   1.91088   1.91815   1.92149
 Alpha virt. eigenvalues --    1.93203   1.93590   1.96064   1.96364   1.98286
 Alpha virt. eigenvalues --    1.98463   2.03760   2.05298   2.06004   2.07926
 Alpha virt. eigenvalues --    2.09380   2.09700   2.10223   2.11944   2.13640
 Alpha virt. eigenvalues --    2.14737   2.16409   2.17197   2.18586   2.19912
 Alpha virt. eigenvalues --    2.20166   2.21581   2.24122   2.25142   2.31121
 Alpha virt. eigenvalues --    2.31912   2.32187   2.35334   2.38057   2.47227
 Alpha virt. eigenvalues --    2.49644   2.53398   2.53893   2.56288   2.60136
 Alpha virt. eigenvalues --    2.60926   2.61087   2.71777   2.72288   2.73271
 Alpha virt. eigenvalues --    2.81037   2.83101   2.83488   2.87050   2.94512
 Alpha virt. eigenvalues --    2.95813   3.04216   3.13658   3.14400   3.14863
 Alpha virt. eigenvalues --    3.31058   3.44012   3.50262   3.58261   3.61134
 Alpha virt. eigenvalues --    4.29201   4.51845
          Condensed to atoms (all electrons):
               1          2          3          4          5          6
     1  C   13.737696  -4.591609   4.343191  -3.382542   2.019207  -4.667891
     2  C   -4.591609  13.735969  -4.669343   2.018238  -3.383790   4.344393
     3  C    4.343191  -4.669343  24.171380  -4.770353  -3.002925  -6.711927
     4  C   -3.382542   2.018238  -4.770353  41.171593 -19.780023  -2.995368
     5  C    2.019207  -3.383790  -3.002925 -19.780023  41.190161  -4.773499
     6  C   -4.667891   4.344393  -6.711927  -2.995368  -4.773499  24.179575
     7  C   -2.402497   1.561897  -3.333649  -2.994727  -4.772824   1.435235
     8  C   -0.107113  -0.269976   1.561411  -3.382715   2.019088  -2.402425
     9  C   -0.269992  -0.106587  -2.399476   2.018522  -3.383872   1.561879
    10  C    1.561464  -2.399508   1.445568  -4.771162  -3.003198  -3.333764
    11  H   -1.361455   0.595157  -0.234520  -0.017798  -0.169308   0.832754
    12  H    0.594280  -1.360275   0.830524  -0.168298  -0.017552  -0.233683
    13  H   -0.383671   0.496990  -2.098812   1.281513  -0.269289   0.223988
    14  H    0.497824  -0.384485   0.224044  -0.271076   1.284234  -2.100352
    15  H    0.054938   0.008157  -0.031781  -0.271100   1.284074   0.179279
    16  H    0.007277  -0.006647  -0.008046  -0.017823  -0.169207   0.031371
    17  H   -0.006629   0.007199   0.030863  -0.168376  -0.017536  -0.007773
    18  H    0.008341   0.054764   0.179612   1.281672  -0.269259  -0.031868
               7          8          9         10         11         12
     1  C   -2.402497  -0.107113  -0.269992   1.561464  -1.361455   0.594280
     2  C    1.561897  -0.269976  -0.106587  -2.399508   0.595157  -1.360275
     3  C   -3.333649   1.561411  -2.399476   1.445568  -0.234520   0.830524
     4  C   -2.994727  -3.382715   2.018522  -4.771162  -0.017798  -0.168298
     5  C   -4.772824   2.019088  -3.383872  -3.003198  -0.169308  -0.017552
     6  C    1.435235  -2.402425   1.561879  -3.333764   0.832754  -0.233683
     7  C   24.177758  -4.667532   4.344232  -6.711877   0.031370  -0.007776
     8  C   -4.667532  13.737500  -4.591650   4.343309   0.007272  -0.006630
     9  C    4.344232  -4.591650  13.736334  -4.669667  -0.006645   0.007204
    10  C   -6.711877   4.343309  -4.669667  24.172839  -0.008042   0.030863
    11  H    0.031370   0.007272  -0.006645  -0.008042   2.241410  -0.128280
    12  H   -0.007776  -0.006630   0.007204   0.030863  -0.128280   2.240934
    13  H   -0.031869   0.008342   0.054763   0.179658  -0.020981  -0.149225
    14  H    0.179230   0.054946   0.008155  -0.031783  -0.149463  -0.020986
    15  H   -2.100109   0.497750  -0.384440   0.224013   0.006039  -0.001410
    16  H    0.832688  -1.361388   0.595095  -0.234520   0.000985  -0.000432
    17  H   -0.233676   0.594341  -1.360373   0.830595  -0.000432   0.000985
    18  H    0.224020  -0.383722   0.497068  -2.099059  -0.001403   0.006009
              13         14         15         16         17         18
     1  C   -0.383671   0.497824   0.054938   0.007277  -0.006629   0.008341
     2  C    0.496990  -0.384485   0.008157  -0.006647   0.007199   0.054764
     3  C   -2.098812   0.224044  -0.031781  -0.008046   0.030863   0.179612
     4  C    1.281513  -0.271076  -0.271100  -0.017823  -0.168376   1.281672
     5  C   -0.269289   1.284234   1.284074  -0.169207  -0.017536  -0.269259
     6  C    0.223988  -2.100352   0.179279   0.031371  -0.007773  -0.031868
     7  C   -0.031869   0.179230  -2.100109   0.832688  -0.233676   0.224020
     8  C    0.008342   0.054946   0.497750  -1.361388   0.594341  -0.383722
     9  C    0.054763   0.008155  -0.384440   0.595095  -1.360373   0.497068
    10  C    0.179658  -0.031783   0.224013  -0.234520   0.830595  -2.099059
    11  H   -0.020981  -0.149463   0.006039   0.000985  -0.000432  -0.001403
    12  H   -0.149225  -0.020986  -0.001410  -0.000432   0.000985   0.006009
    13  H    2.644183   0.012832   0.002722  -0.001403   0.006010  -0.142321
    14  H    0.012832   2.646062  -0.142217   0.006038  -0.001410   0.002722
    15  H    0.002722  -0.142217   2.645970  -0.149436  -0.020988   0.012832
    16  H   -0.001403   0.006038  -0.149436   2.241341  -0.128279  -0.020980
    17  H    0.006010  -0.001410  -0.020988  -0.128279   2.241001  -0.149248
    18  H   -0.142321   0.002722   0.012832  -0.020980  -0.149248   2.644270
 Mulliken charges:
               1
     1  C    0.349180
     2  C    0.349456
     3  C    0.474239
     4  C    1.219822
     5  C    1.215517
     6  C    0.470077
     7  C    0.470106
     8  C    0.349192
     9  C    0.349449
    10  C    0.474271
    11  H   -0.616660
    12  H   -0.616250
    13  H   -0.813430
    14  H   -0.814316
    15  H   -0.814294
    16  H   -0.616635
    17  H   -0.616275
    18  H   -0.813448
 Sum of Mulliken charges =   0.00000
 Mulliken charges with hydrogens summed into heavy atoms:
               1
     1  C   -0.267480
     2  C   -0.266794
     3  C   -0.339191
     4  C    1.219822
     5  C    1.215517
     6  C   -0.344239
     7  C   -0.344188
     8  C   -0.267443
     9  C   -0.266826
    10  C   -0.339177
 Electronic spatial extent (au):  <R**2>=           1291.6642
 Charge=              0.0000 electrons
 Dipole moment (field-independent basis, Debye):
    X=              0.0000    Y=             -0.0011    Z=              0.0001  Tot=              0.0011
 Quadrupole moment (field-independent basis, Debye-Ang):
   XX=            -51.2100   YY=            -51.4707   ZZ=            -64.2741
   XY=              0.0002   XZ=             -0.0020   YZ=             -0.0022
 Traceless Quadrupole moment (field-independent basis, Debye-Ang):
   XX=              4.4416   YY=              4.1809   ZZ=             -8.6225
   XY=              0.0002   XZ=             -0.0020   YZ=             -0.0022
 Octapole moment (field-independent basis, Debye-Ang**2):
  XXX=              0.0000  YYY=             -0.0081  ZZZ=              0.0001  XYY=             -0.0001
  XXY=             -0.0185  XXZ=              0.0005  XZZ=              0.0000  YZZ=              0.0004
  YYZ=              0.0004  XYZ=              0.0000
 Hexadecapole moment (field-independent basis, Debye-Ang**3):
 XXXX=          -1085.4959 YYYY=           -481.9686 ZZZZ=            -76.7018 XXXY=              0.0015
 XXXZ=              0.0137 YYYX=              0.0012 YYYZ=              0.0048 ZZZX=              0.0500
 ZZZY=              0.0237 XXYY=           -267.1658 XXZZ=           -241.4648 YYZZ=           -113.7116
 XXYZ=             -0.0006 YYXZ=              0.0112 ZZXY=              0.0000
 N-N= 4.576252495164D+02 E-N=-1.809177572058D+03  KE= 3.833829330932D+02
 No NMR shielding tensors so no spin-rotation constants.
 Leave Link  601 at Thu Jun 11 16:01:47 2026, MaxMem= 12079595520 cpu:        27.9
 (Enter /local/gaussian-09.D01/g09/l9999.exe)

 Test job not archived.
 1\1\GINC-WUX11\SP\RwB97XD\Aug-CC-pVDZ\C10H8\BUEHLERM\11-Jun-2026\0\\#p
  wb97xD/aug-cc-pvdz NMR=CSGT IOp(10/93=1) SCF=(Tight,MaxCycle=512) Int
 =UltraFine\\TEST\\0,1\C,0,2.435396,-0.689423,-0.000297\C,0,2.423759,0.
 72894,-0.000092\C,0,1.23339,1.410747,0.000035\C,0,-0.005811,0.711485,0
 .000035\C,0,0.005804,-0.710637,0.000035\C,0,1.255946,-1.390177,-0.0001
 59\C,0,-1.233092,-1.410511,-0.000033\C,0,-2.423815,-0.729105,0.000089\
 C,0,-2.435341,0.689257,0.000299\C,0,-1.256251,1.390405,0.000171\H,0,3.
 387353,-1.221441,-0.000526\H,0,3.367262,1.275875,-0.000214\H,0,1.22135
 ,2.502001,0.000272\H,0,1.262147,-2.481468,-0.000373\H,0,-1.221413,-2.5
 01754,-0.000292\H,0,-3.366958,-1.27661,0.000191\H,0,-3.387645,1.220703
 ,0.000499\H,0,-1.26208,2.481712,0.000362\\Version=ES64L-G09RevD.01\Sta
 te=1-A\HF=-385.7947684\RMSD=8.450e-09\Dipole=0.0000053,-0.0004365,-0.0
 00022\Quadrupole=3.3022352,3.1083968,-6.410632,0.0014623,-0.001471,0.0
 016563\PG=C01 [X(C10H8)]\\@


 IF YOU'RE NOT PART OF THE SOLUTION,
 THEN YOU'RE PART OF THE PRECIPITATE.
 Job cpu time:       0 days  0 hours 44 minutes  6.8 seconds.
 File lengths (MBytes):  RWF=     39 Int=      0 D2E=      0 Chk=      8 Scr=      1
 Normal termination of Gaussian 09 at Thu Jun 11 16:01:48 2026.
