
Running Job 1 of 1 qchem.inp
qchem qchem.inp_2571246.0 /scratch/483108/qchem2571246/ 1
/local/qchem-6.3/exe/qcprog.exe_s qchem.inp_2571246.0 /scratch/483108/qchem2571246/
                  Welcome to Q-Chem
     A Quantum Leap Into The Future Of Chemistry


 Q-Chem 6.3, Q-Chem, Inc., Pleasanton, CA (2025)

 License issued to: MRG Dr. Merle Roehr, University of Wuerzburg

 E. Epifanovsky,  A. T. B. Gilbert,  Xintian Feng,  Joonho Lee,  Yuezhi Mao,  
 N. Mardirossian,  P. Pokhilko,  A. White,  M. Wormit,  M. P. Coons,  
 A. L. Dempwolff,  Zhengting Gan,  D. Hait,  P. R. Horn,  L. D. Jacobson,  
 I. Kaliman,  J. Kussmann,  A. W. Lange,  Ka Un Lao,  D. S. Levine,  Jie Liu,  
 S. C. McKenzie,  A. F. Morrison,  K. D. Nanda,  F. Plasser,  D. R. Rehn,  
 M. L. Vidal,  Zhi-Qiang You,  Ying Zhu,  Huseyin Aksu,  B. Alam,  
 B. Albrecht,  A. Aldossary,  E. Alguire,  J. H. Andersen,  
 J. E. Arias-Martinez,  V. Athavale,  F. Ballesteros,  D. Barton,  K. Begam,  
 A. Behn,  N. Bellonzi,  Y. A. Bernard,  E. J. Berquist,  H. Burton,  
 S. Camps,  A. Carreras,  K. Carter-Fenk,  Mathew Chow,  Romit Chakraborty,  
 Chandrima Chakravarty,  Junhan Chen,  A. D. Chien,  K. D. Closser,  
 V. Cofer-Shabica,  L. Cunha,  S. Dasgupta,  Jia Deng,  Joseph Dickinson,  
 M. de Wergifosse,  M. Diedenhofen,  L. B. Dittmer,  Hainam Do,  Wenjie Dou,  
 S. Ehlert,  Po-Tung Fang,  S. Fatehi,  Qingguo Feng,  Jonathan Fetherolf,  
 T. Friedhoff,  Thomas Froitzheim,  Sarai Folkestad,  B. Ganoe,  J. Gayvert,  
 Qinghui Ge,  G. Gidofalvi,  M. Gimferrer,  G. Giudetti,  M. Goldey,  
 Montgomery Gray,  J. Gomes,  C. Gonzalez-Espinoza,  S. Gulania,  A. Gunina,  
 J. A. Gyamfi,  M. W. D. Hanson-Heine,  P. H. P. Harbach,  A. W. Hauser,  
 M. F. Herbst,  M. Hernandez Vera,  M. Hodecker,  Z. C. Holden,  S. Houck,  
 Xunkun Huang,  Kerwin Hui,  B. C. Huynh,  K. Ikeda,  M. Ivanov,  
 Nayanthara K. Jayadev,  Hyunjun Ji,  Zuxin Jin,  Hanjie Jiang,  
 Subrata Jana,  B. Kaduk,  S. Kaehler,  R. Kang,  Richard Kang,  
 K. Khistyaev,  Jaehoon Kim,  Yongbin Kim,  P. Klunzinger,  Z. Koczor-Benda,  
 Joong Hoon Koh,  D. Kosenkov,  Saikiran Kotaru,  L. Koulias,  T. Kowalczyk,  
 C. M. Krauter,  K. Kue,  A. Kunitsa,  T. Kus,  A. Landau,  C. W. Lander,  
 K. V. Lawler,  D. Lefrancois,  S. Lehtola,  Rain Li,  Shaozhi Li,  
 Tao E. Li,  Yi-Pei Li,  Jiashu Liang,  M. Liebenthal,  Hung-Hsuan Lin,  
 You-Sheng Lin,  Fenglai Liu,  Kuan-Yu Liu,  Xiao Liu,  M. Loipersberger,  
 A. Luenser,  C. Malbon,  Aniket Mandal,  Manisha,  A. Manjanath,  
 P. Manohar,  E. Mansoor,  S. F. Manzer,  Shan-Ping Mao,  A. V. Marenich,  
 T. Markovich,  S. Mason,  F. Matz,  S. A. Maurer,  Samuel May,  
 Alexandra McIsaac,  P. F. McLaughlin,  M. F. S. J. Menger,  J.-M. Mewes,  
 S. A. Mewes,  R. E. Moorby,  P. Morgante,  Mohammad Mostafanejad,  
 Madhubani Mukherjee,  J. W. Mullinax,  Quyen Nguyen,  Avik Kumar Ojha,  
 K. J. Oosterbaan,  Eno Paenurk,  Xiaoliang Pan,  G. Paran,  V. Parravicini,  
 R. L. Patterson,  Alexander C. Paul,  Suranjan K. Paul,  F. Pavosevic,  
 Zheng Pei,  P. Pokhilko,  S. Prager,  E. I. Proynov,  E. Ramos,  B. Rana,  
 A. E. Rask,  A. Rettig,  R. M. Richard,  F. Rob,  E. Rossomme,  S. Roy,  
 T. Scheele,  M. Scheurer,  M. Schneider,  P. E. Schneider,  Tim K. Schramm,  
 N. Sergueev,  S. M. Sharada,  Hengyuan Shen,  W. Skomorowski,  D. W. Small,  
 C. J. Stein,  Alistair J. Sterling,  Yingli Su,  Yu-Chuan Su,  
 E. J. Sundstrom,  J. Talbot,  J. A. Tan,  Zhen Tao,  Hung-Hsuan Teh,  
 J. Thirman,  C. Titeca,  N. Tkachenko,  Hung-Yi Tsai,  T. Tsuchimochi,  
 N. M. Tubman,  C. Utku,  S. P. Veccham,  O. Vydrov,  Z. Wang,  Rahel Weiss,  
 J. Wenzel,  Jonathan Wong,  J. Witte,  H. Wu,  Yanze Wu,  A. Yamada,  
 Chou-Hsun Yang,  Kun Yao,  S. Yeganeh,  S. R. Yost,  Qi Yu,  A. Zech,  
 F. Zeller,  Chongxiao Zhao,  T. Zhao,  Igor Ying Zhang,  Xing Zhang,  
 Yu Zhang,  D. Zuev,  A. Aspuru-Guzik,  A. T. Bell,  N. A. Besley,  
 K. B. Bravaya,  B. R. Brooks,  D. Casanova,  Jeng-Da Chai,  Hsing-Ta Chen,  
 S. Coriani,  C. J. Cramer,  A. E. DePrince, III,  R. A. DiStasio Jr.,  
 A. Dreuw,  B. D. Dunietz,  T. R. Furlani,  W. A. Goddard III,  S. Grimme,  
 S. Hammes-Schiffer,  T. Head-Gordon,  W. J. Hehre,  Chao-Ping Hsu,  
 T.-C. Jagau,  Yousung Jung,  A. Klamt,  Jing Kong,  D. S. Lambrecht,  
 Xiangyuan Li,  WanZhen Liang,  N. J. Mayhall,  C. W. McCurdy,  J. B. Neaton,  
 T. Neudecker,  C. Ochsenfeld,  J. A. Parkhill,  R. Peverati,  
 V. A. Rassolov,  Haisheng Ren,  Yihan Shao,  L. V. Slipchenko,  
 R. P. Steele,  J. E. Subotnik,  A. J. W. Thom,  A. Tkatchenko,  
 D. G. Truhlar,  T. Van Voorhis,  Fan Wang,  T. A. Wesolowski,  K. B. Whaley,  
 H. L. Woodcock III,  P. M. Zimmerman,  S. Faraji,  P. M. W. Gill,  
 M. Head-Gordon,  J. M. Herbert,  A. I. Krylov

 Contributors to earlier versions of Q-Chem not listed above: 
 R. D. Adamson,  B. Austin,  R. Baer,  J. Baker,  G. J. O. Beran,  
 K. Brandhorst,  S. T. Brown,  E. F. C. Byrd,  Arup K. Chakraborty,  
 G. K. L. Chan,  Chun-Min Chang,  Yunqing Chen,  C.-L. Cheng,  
 Siu Hung Chien,  D. M. Chipman,  D. L. Crittenden,  H. Dachsel,  
 R. J. Doerksen,  A. D. Dutoi,  R. G. Edgar,  J. Fosso-Tande,  
 L. Fusti-Molnar,  D. Ghosh,  A. Ghysels,  A. Golubeva-Zadorozhnaya,  
 J. Gonthier,  M. S. Gordon,  S. R. Gwaltney,  G. Hawkins,  J. E. Herr,  
 A. Heyden,  S. Hirata,  E. G. Hohenstein,  G. Kedziora,  F. J. Keil,  
 C. Kelley,  Jihan Kim,  R. A. King,  R. Z. Khaliullin,  P. P. Korambath,  
 W. Kurlancheek,  A. Laurent,  A. M. Lee,  M. S. Lee,  S. V. Levchenko,  
 Ching Yeh Lin,  D. Liotard,  E. Livshits,  R. C. Lochan,  I. Lotan,  
 L. A. Martinez-Martinez,  P. E. Maslen,  N. Nair,  D. P. O'Neill,  
 D. Neuhauser,  E. Neuscamman,  C. M. Oana,  R. Olivares-Amaya,  R. Olson,  
 T. M. Perrine,  B. Peters,  P. A. Pieniazek,  A. Prociuk,  Y. M. Rhee,  
 J. Ritchie,  M. A. Rohrdanz,  E. Rosta,  N. J. Russ,  H. F. Schaefer III,  
 M. W. Schmidt,  N. E. Schultz,  S. Sharma,  N. Shenvi,  C. D. Sherrill,  
 A. C. Simmonett,  A. Sodt,  T. Stein,  D. Stuck,  K. S. Thanthiriwatte,  
 V. Vanovschi,  L. Vogt,  Tao Wang,  A. Warshel,  M. A. Watson,  
 C. F. Williams,  Q. Wu,  X. Xu,  Jun Yang,  W. Zhang,  Yan Zhao

   Please cite Q-Chem as follows:
  "Software for the frontiers of quantum chemistry:
   An overview of developments in the Q-Chem 5 package"
   J. Chem. Phys. 155, 084801 (2021)
   https://doi.org/10.1063/5.0055522 (open access)

 Q-Chem 6.3.1 for Intel X86 EM64T Linux

 Parts of Q-Chem use Armadillo 12.8.2 (Cortisol Injector).
 http://arma.sourceforge.net/

 Q-Chem begins on Wed Jun 17 18:30:57 2026  

 Host: 
0

 Scratch files written to /scratch/483108/qchem2571246//
 Executable: /local/qchem-6.3/exe/qcprog.exe_s
 Number of threads = 8
 Sep2225 |scratch|qcdevops|jenkins|workspace|build_RNUM -1
 Processing $rem in /local/qchem-6.3/config/preferences:
 Processing $rem in /home/buehlerm/.qchemrc:

 Checking the input file for inconsistencies... 	...done.

--------------------------------------------------------------
User input:
--------------------------------------------------------------
$molecule
0 1
C 2.435396 -0.689423 -0.000297
C 2.423759 0.728940 -0.000092
C 1.233390 1.410747 0.000035
C -0.005811 0.711485 0.000035
C 0.005804 -0.710637 0.000035
C 1.255946 -1.390177 -0.000159
C -1.233092 -1.410511 -0.000033
C -2.423815 -0.729105 0.000089
C -2.435341 0.689257 0.000299
C -1.256251 1.390405 0.000171
H 3.387353 -1.221441 -0.000526
H 3.367262 1.275875 -0.000214
H 1.221350 2.502001 0.000272
H 1.262147 -2.481468 -0.000373
H -1.221413 -2.501754 -0.000292
H -3.366958 -1.276610 0.000191
H -3.387645 1.220703 0.000499
H -1.262080 2.481712 0.000362
$end

$rem
METHOD     wB97xD
BASIS      aug-cc-pvdz
NBO        1        ! NBO5 Aufruf
MAKE_CUBE_FILES TRUE
PLOTS TRUE
$end

$nbo
PLOT
$end

$plots
grid_range (-6,6) (-6,6) (-4,4)
grid_spacing 0.12
nbo_state 0
natural_bond_orbital 11
$end
--------------------------------------------------------------
 ----------------------------------------------------------------
             Standard Nuclear Orientation (Angstroms)
    I     Atom           X                Y                Z
 ----------------------------------------------------------------
    1      C       2.4296835594    -0.7093661859    -0.0000428922
    2      C       2.4296331351     0.7090445635     0.0000277325
    3      C       1.2448733322     1.4005526009    -0.0000049063
    4      C       0.0000016092     0.7114366055    -0.0000385293
    5      C      -0.0000006883    -0.7107328194     0.0000961980
    6      C       1.2445486440    -1.4004622070     0.0000664185
    7      C      -1.2445724153    -1.4004632923    -0.0000053430
    8      C      -2.4296894817    -0.7093533502    -0.0000429724
    9      C      -2.4296289183     0.7090554930     0.0000326612
   10      C      -1.2448507731     1.4005484425    -0.0000667154
   11      H       3.3772629094    -1.2491427134    -0.0001454716
   12      H       3.3775724186     1.2482541009    -0.0000700348
   13      H       1.2417478584     2.4918685606     0.0001284609
   14      H       1.2418350085    -2.4917674662    -0.0000444136
   15      H      -1.2418078379    -2.4917653055    -0.0001607402
   16      H      -3.3772734318    -1.2491358113     0.0000348773
   17      H      -3.3775599269     1.2482628713     0.0001062666
   18      H      -1.2417650175     2.4918666603     0.0000211451
 ----------------------------------------------------------------
 Molecular Point Group                 C1    NOp =  1
 Largest Abelian Subgroup              C1    NOp =  1
 Nuclear Repulsion Energy =         457.62525153 hartrees
 There are       34 alpha and       34 beta electrons
 Requested basis set is aug-cc-pVDZ
 There are 130 shells and 302 basis functions

 Total QAlloc Memory Limit   7000 MB
 Mega-Array Size       188 MB
 MEM_STATIC part       192 MB

 A cutoff of  1.0D-09 yielded   8153 shell pairs
 There are     44297 function pairs (     50467 Cartesian)
 Smallest overlap matrix eigenvalue = 8.40E-07

 Q-Chem warning in module stvman/mkSTV.C, line 305:

 Overlap eigenvalue is smaller than square root of threshold
 Use THRESH >= 12 to get rid of this warning

 Linear dependence detected in AO basis
 Tighter screening thresholds may be required for diffuse basis sets
 Use S2THRESH > 14 and THRESH = 14 in case of SCF convergence issues
 Number of orthogonalized atomic orbitals = 301
 Maximum deviation from orthogonality = 1.874E-10

 Scale SEOQF with 1.000000e-01/1.000000e-01/1.000000e-01

 Standard Electronic Orientation quadrupole field applied
 Nucleus-field energy     =     0.0000000151 hartrees
 Guess from superposition of atomic densities
 Warning:  Energy on first SCF cycle will be non-variational
 SAD guess density has 68.000000 electrons

 -----------------------------------------------------------------------
  General SCF calculation program by
  Eric Jon Sundstrom, Paul Horn, Yuezhi Mao, Dmitri Zuev, Alec White,
  David Stuck, Shaama M.S., Shane Yost, Joonho Lee, David Small,
  Daniel Levine, Susi Lehtola, Hugh Burton, Evgeny Epifanovsky,
  Bang C. Huynh
 -----------------------------------------------------------------------
 Exchange:     0.2220 Hartree-Fock + 1.0000 wB97X-D + LR-HF
 Correlation:  1.0000 wB97X-D
 Using SG-2 standard quadrature grid
 Dispersion:   Grimme D
 using 8 threads for integral computing
 -------------------------------------------------------
 OpenMP Integral computing Module                
 Release: version 1.0, May 2013, Q-Chem Inc. Pittsburgh 
 -------------------------------------------------------
 A restricted SCF calculation will be
 performed using DIIS
 SCF converges when DIIS error is below 1.0e-05
 User-specified cutoff of 10e-9
 used for neglect of 2-electron integrals.
 A cutoff of 10e-9
 used for neglect of overlap integrals.
 Incremental Fock algorithm is on at the start.
 ---------------------------------------
  Cycle       Energy         DIIS error
 ---------------------------------------
    1    -389.1029438147      3.61e-02  
    2    -385.7153452314      2.30e-03  
    3    -385.7623152827      1.50e-03  
    4    -385.7895855794      2.08e-04  
    5    -385.7900374546      1.18e-04  
    6    -385.7901961007      2.40e-05  
    7    -385.7902040952      8.99e-06  Convergence criterion met
 ---------------------------------------
 SCF time:   CPU 451.02s  wall 57.00s 
 SCF   energy =  -385.79020410
 Total energy =  -385.79020410
 Integrated density by DFT XC:
   Number of electrons = 68
   Numerical integral  =    68.000175205794
   Relative error      =     0.0002576556 %
 
 --------------------------------------------------------------
 
                    Orbital Energies (a.u.)
 --------------------------------------------------------------
 
 Alpha MOs
 -- Occupied --
-10.3127 -10.3123 -10.3058 -10.3058 -10.3056 -10.3056 -10.3051 -10.3051
-10.3049 -10.3049  -0.9829  -0.9284  -0.8786  -0.8453  -0.8232  -0.7238
 -0.7102  -0.6944  -0.6087  -0.6030  -0.5867  -0.5375  -0.5315  -0.5048
 -0.5047  -0.4877  -0.4874  -0.4535  -0.4215  -0.4198  -0.4138  -0.3716
 -0.3223  -0.2940
 -- Virtual --
  0.0158   0.0367   0.0400   0.0417   0.0432   0.0541   0.0564   0.0706
  0.0734   0.0767   0.0963   0.1036   0.1105   0.1139   0.1227   0.1301
  0.1306   0.1391   0.1399   0.1438   0.1439   0.1473   0.1477   0.1569
  0.1589   0.1625   0.1704   0.1784   0.1860   0.1879   0.1916   0.1932
  0.1971   0.2023   0.2044   0.2060   0.2347   0.2406   0.2474   0.2517
  0.2555   0.2645   0.2733   0.2788   0.2835   0.2894   0.2915   0.2931
  0.2980   0.3061   0.3067   0.3226   0.3231   0.3256   0.3312   0.3331
  0.3349   0.3394   0.3456   0.3488   0.3556   0.3637   0.3848   0.3891
  0.3923   0.3965   0.3992   0.4099   0.4245   0.4288   0.4298   0.4346
  0.4439   0.4606   0.4793   0.4893   0.4961   0.4973   0.5027   0.5056
  0.5165   0.5214   0.5356   0.5549   0.5636   0.5644   0.5709   0.5733
  0.5776   0.5909   0.5915   0.6039   0.6169   0.6245   0.6327   0.6332
  0.6339   0.6455   0.6470   0.6484   0.6525   0.6556   0.6616   0.6727
  0.6771   0.6777   0.6905   0.6950   0.7056   0.7060   0.7081   0.7118
  0.7227   0.7333   0.7368   0.7488   0.7506   0.7684   0.7728   0.8087
  0.8119   0.8228   0.8249   0.8262   0.8265   0.8364   0.8380   0.8453
  0.8487   0.8503   0.8552   0.8594   0.8675   0.8994   0.9028   0.9206
  0.9231   0.9268   0.9335   0.9666   0.9749   0.9857   0.9901   0.9943
  1.0212   1.0543   1.0701   1.0848   1.1092   1.1374   1.1444   1.1685
  1.1827   1.1925   1.2273   1.2424   1.3135   1.3361   1.3423   1.3481
  1.3539   1.3643   1.3834   1.3942   1.3989   1.4133   1.4158   1.4403
  1.4684   1.4717   1.4745   1.4760   1.4857   1.4861   1.5047   1.5099
  1.5143   1.5271   1.5393   1.5951   1.5971   1.5973   1.5992   1.6177
  1.6265   1.6279   1.6317   1.6440   1.6778   1.6902   1.6984   1.7262
  1.7299   1.7462   1.7699   1.7748   1.7881   1.7906   1.7942   1.8081
  1.8105   1.8517   1.8672   1.8711   1.8885   1.8966   1.9017   1.9109
  1.9183   1.9216   1.9321   1.9360   1.9606   1.9637   1.9829   1.9847
  2.0377   2.0529   2.0601   2.0792   2.0936   2.0969   2.1023   2.1195
  2.1364   2.1472   2.1640   2.1720   2.1859   2.1992   2.2017   2.2158
  2.2412   2.2514   2.3112   2.3192   2.3219   2.3533   2.3806   2.4723
  2.4965   2.5339   2.5390   2.5630   2.6015   2.6092   2.6109   2.7180
  2.7231   2.7328   2.8104   2.8311   2.8349   2.8705   2.9451   2.9583
  3.0421   3.1366   3.1440   3.1485   3.3106   3.4401   3.5027   3.5827
  3.6113   4.2920   4.5187
 --------------------------------------------------------------
 
          Ground-State Mulliken Net Atomic Charges

     Atom                 Charge (a.u.)
  ----------------------------------------
      1 C                     0.349834
      2 C                     0.350068
      3 C                     0.475691
      4 C                     1.223142
      5 C                     1.218620
      6 C                     0.471612
      7 C                     0.471724
      8 C                     0.349927
      9 C                     0.350043
     10 C                     0.475687
     11 H                    -0.617514
     12 H                    -0.617113
     13 H                    -0.816325
     14 H                    -0.817213
     15 H                    -0.817199
     16 H                    -0.617497
     17 H                    -0.617140
     18 H                    -0.816346
  ----------------------------------------
  Sum of atomic charges =     0.000000

 -----------------------------------------------------------------
                    Cartesian Multipole Moments
 -----------------------------------------------------------------
    Charge (ESU x 10^10)
                 0.0000
    Dipole Moment (Debye)
         X       0.0000      Y      -0.0011      Z      -0.0001
       Tot       0.0011
    Quadrupole Moments (Debye-Ang)
        XX     -51.2007     XY      -0.0002     YY     -51.4834
        XZ      -0.0009     YZ       0.0010     ZZ     -64.2603
    Octopole Moments (Debye-Ang^2)
       XXX       0.0000    XXY      -0.0185    XYY       0.0001
       YYY      -0.0081    XXZ      -0.0005    XYZ       0.0000
       YYZ      -0.0004    XZZ      -0.0000    YZZ       0.0004
       ZZZ      -0.0001
    Hexadecapole Moments (Debye-Ang^3)
      XXXX   -1085.5103   XXXY      -0.0015   XXYY    -267.1803
      XYYY      -0.0012   YYYY    -482.0983   XXXZ      -0.0150
      XXYZ       0.0030   XYYZ      -0.0010   YYYZ       0.0086
      XXZZ    -241.3988   XYZZ      -0.0000   YYZZ    -113.6789
      XZZZ      -0.0014   YZZZ       0.0013   ZZZZ     -76.6038
 -----------------------------------------------------------------

 Begin NBO analysis for the ground state 

 This is the NBO5 program in Q-Chem
 (Use NBO_EXTERNAL to run external NBO6 or NBO7)

 *********************************** NBO 5.0 ***********************************
             N A T U R A L   A T O M I C   O R B I T A L   A N D
          N A T U R A L   B O N D   O R B I T A L   A N A L Y S I S
 *******************************************************************************
  (c) Copyright 1996-2002 Board of Regents of the University of Wisconsin System
      on behalf of the Theoretical Chemistry Institute.  All Rights Reserved.

          Cite this program as:

          NBO 5.0.  E. D. Glendening, J. K. Badenhoop, A. E. Reed,
          J. E. Carpenter, J. A. Bohmann, C. M. Morales, and F. Weinhold
          (Theoretical Chemistry Institute, University of Wisconsin,
          Madison, WI, 2001); http://www.chem.wisc.edu/~nbo5

       /PLOT   / : Write information for the orbital plotter
  This is a closed-shell NBO calculation

 Job title: Starting NBO analysis.                                          

 Storage needed:      457312 in NPA,      366069 in NBO,
                      366650 in NLMO (    23999918 available)


 NATURAL POPULATIONS:  Natural atomic orbital occupancies 
                                                          
  NAO Atom No lang   Type(AO)    Occupancy      Energy    
 ---------------------------------------------------------
   1    C  1  s      Cor( 1s)     1.99899     -10.16028
   2    C  1  s      Val( 2s)     0.96013      -0.15875
   3    C  1  s      Ryd( 4s)     0.00099       1.65788
   4    C  1  s      Ryd( 3s)     0.00007       0.81505
   5    C  1  px     Val( 2p)     1.16568      -0.05913
   6    C  1  px     Ryd( 4p)     0.00536       1.10951
   7    C  1  px     Ryd( 3p)     0.00007       0.49357
   8    C  1  py     Val( 2p)     1.08654      -0.04283
   9    C  1  py     Ryd( 4p)     0.00469       1.01356
  10    C  1  py     Ryd( 3p)     0.00009       0.41560
  11    C  1  pz     Val( 2p)     1.00145      -0.10631
  12    C  1  pz     Ryd( 4p)     0.00100       0.74430
  13    C  1  pz     Ryd( 3p)     0.00010       0.30610
  14    C  1  dxy    Ryd( 4d)     0.00060       2.23575
  15    C  1  dxy    Ryd( 3d)     0.00066       1.54878
  16    C  1  dxz    Ryd( 4d)     0.00047       1.35529
  17    C  1  dxz    Ryd( 3d)     0.00009       1.26782
  18    C  1  dyz    Ryd( 4d)     0.00034       1.37563
  19    C  1  dyz    Ryd( 3d)     0.00019       1.19371
  20    C  1  dx2y2  Ryd( 4d)     0.00116       2.16256
  21    C  1  dx2y2  Ryd( 3d)     0.00049       1.54435
  22    C  1  dz2    Ryd( 4d)     0.00177       1.81136
  23    C  1  dz2    Ryd( 3d)     0.00039       1.16778
 
  24    C  2  s      Cor( 1s)     1.99899     -10.16028
  25    C  2  s      Val( 2s)     0.96007      -0.15870
  26    C  2  s      Ryd( 4s)     0.00099       1.65801
  27    C  2  s      Ryd( 3s)     0.00007       0.81489
  28    C  2  px     Val( 2p)     1.16575      -0.05913
  29    C  2  px     Ryd( 4p)     0.00536       1.10976
  30    C  2  px     Ryd( 3p)     0.00007       0.49373
  31    C  2  py     Val( 2p)     1.08654      -0.04282
  32    C  2  py     Ryd( 4p)     0.00469       1.01330
  33    C  2  py     Ryd( 3p)     0.00009       0.41564
  34    C  2  pz     Val( 2p)     1.00143      -0.10631
  35    C  2  pz     Ryd( 4p)     0.00100       0.74429
  36    C  2  pz     Ryd( 3p)     0.00010       0.30612
  37    C  2  dxy    Ryd( 4d)     0.00060       2.23558
  38    C  2  dxy    Ryd( 3d)     0.00066       1.54887
  39    C  2  dxz    Ryd( 4d)     0.00047       1.35541
  40    C  2  dxz    Ryd( 3d)     0.00009       1.26787
  41    C  2  dyz    Ryd( 4d)     0.00034       1.37579
  42    C  2  dyz    Ryd( 3d)     0.00019       1.19351
  43    C  2  dx2y2  Ryd( 4d)     0.00116       2.16278
  44    C  2  dx2y2  Ryd( 3d)     0.00050       1.54428
  45    C  2  dz2    Ryd( 4d)     0.00177       1.81154
  46    C  2  dz2    Ryd( 3d)     0.00039       1.16761
 
  47    C  3  s      Cor( 1s)     1.99894     -10.15741
  48    C  3  s      Val( 2s)     0.94809      -0.14565
  49    C  3  s      Ryd( 4s)     0.00112       1.74112
  50    C  3  s      Ryd( 3s)     0.00012       0.85503
  51    C  3  px     Val( 2p)     1.05236      -0.02979
  52    C  3  px     Ryd( 4p)     0.00408       0.99864
  53    C  3  px     Ryd( 3p)     0.00013       0.39514
  54    C  3  py     Val( 2p)     1.19061      -0.06757
  55    C  3  py     Ryd( 4p)     0.00610       1.24961
  56    C  3  py     Ryd( 3p)     0.00005       0.48556
  57    C  3  pz     Val( 2p)     0.99360      -0.10540
  58    C  3  pz     Ryd( 4p)     0.00083       0.77042
  59    C  3  pz     Ryd( 3p)     0.00017       0.30203
  60    C  3  dxy    Ryd( 4d)     0.00130       2.14419
  61    C  3  dxy    Ryd( 3d)     0.00044       1.57843
  62    C  3  dxz    Ryd( 4d)     0.00045       1.44668
  63    C  3  dxz    Ryd( 3d)     0.00024       1.16472
  64    C  3  dyz    Ryd( 4d)     0.00038       1.37682
  65    C  3  dyz    Ryd( 3d)     0.00006       1.29604
  66    C  3  dx2y2  Ryd( 4d)     0.00030       2.29836
  67    C  3  dx2y2  Ryd( 3d)     0.00091       1.59548
  68    C  3  dz2    Ryd( 4d)     0.00164       1.87956
  69    C  3  dz2    Ryd( 3d)     0.00042       1.16510
 
  70    C  4  s      Cor( 1s)     1.99888     -10.15709
  71    C  4  s      Val( 2s)     0.87228      -0.09812
  72    C  4  s      Ryd( 4s)     0.00060       2.14125
  73    C  4  s      Ryd( 3s)     0.00010       0.82034
  74    C  4  px     Val( 2p)     1.09604      -0.05078
  75    C  4  px     Ryd( 4p)     0.00587       1.23740
  76    C  4  px     Ryd( 3p)     0.00005       0.40710
  77    C  4  py     Val( 2p)     1.08364      -0.04082
  78    C  4  py     Ryd( 4p)     0.00524       1.19472
  79    C  4  py     Ryd( 3p)     0.00008       0.39946
  80    C  4  pz     Val( 2p)     0.99809      -0.09850
  81    C  4  pz     Ryd( 4p)     0.00055       0.79151
  82    C  4  pz     Ryd( 3p)     0.00007       0.34894
  83    C  4  dxy    Ryd( 4d)     0.00101       2.31666
  84    C  4  dxy    Ryd( 3d)     0.00012       1.73361
  85    C  4  dxz    Ryd( 4d)     0.00095       1.82718
  86    C  4  dxz    Ryd( 3d)     0.00000       1.09845
  87    C  4  dyz    Ryd( 4d)     0.00077       1.81876
  88    C  4  dyz    Ryd( 3d)     0.00004       1.03012
  89    C  4  dx2y2  Ryd( 4d)     0.00093       2.26597
  90    C  4  dx2y2  Ryd( 3d)     0.00033       1.90614
  91    C  4  dz2    Ryd( 4d)     0.00020       1.99456
  92    C  4  dz2    Ryd( 3d)     0.00219       1.16446
 
  93    C  5  s      Cor( 1s)     1.99888     -10.15709
  94    C  5  s      Val( 2s)     0.87230      -0.09815
  95    C  5  s      Ryd( 4s)     0.00061       2.14129
  96    C  5  s      Ryd( 3s)     0.00010       0.82018
  97    C  5  px     Val( 2p)     1.09596      -0.05078
  98    C  5  px     Ryd( 4p)     0.00588       1.23728
  99    C  5  px     Ryd( 3p)     0.00005       0.40722
 100    C  5  py     Val( 2p)     1.08374      -0.04084
 101    C  5  py     Ryd( 4p)     0.00523       1.19474
 102    C  5  py     Ryd( 3p)     0.00008       0.39966
 103    C  5  pz     Val( 2p)     0.99809      -0.09851
 104    C  5  pz     Ryd( 4p)     0.00055       0.79147
 105    C  5  pz     Ryd( 3p)     0.00007       0.34899
 106    C  5  dxy    Ryd( 4d)     0.00101       2.31675
 107    C  5  dxy    Ryd( 3d)     0.00012       1.73375
 108    C  5  dxz    Ryd( 4d)     0.00095       1.82723
 109    C  5  dxz    Ryd( 3d)     0.00000       1.09812
 110    C  5  dyz    Ryd( 4d)     0.00077       1.81891
 111    C  5  dyz    Ryd( 3d)     0.00004       1.03000
 112    C  5  dx2y2  Ryd( 4d)     0.00093       2.26571
 113    C  5  dx2y2  Ryd( 3d)     0.00033       1.90597
 114    C  5  dz2    Ryd( 4d)     0.00020       1.99293
 115    C  5  dz2    Ryd( 3d)     0.00220       1.16599
 
 116    C  6  s      Cor( 1s)     1.99894     -10.15742
 117    C  6  s      Val( 2s)     0.94815      -0.14572
 118    C  6  s      Ryd( 4s)     0.00112       1.74099
 119    C  6  s      Ryd( 3s)     0.00012       0.85513
 120    C  6  px     Val( 2p)     1.05234      -0.02981
 121    C  6  px     Ryd( 4p)     0.00408       0.99860
 122    C  6  px     Ryd( 3p)     0.00013       0.39522
 123    C  6  py     Val( 2p)     1.19058      -0.06756
 124    C  6  py     Ryd( 4p)     0.00610       1.24959
 125    C  6  py     Ryd( 3p)     0.00005       0.48562
 126    C  6  pz     Val( 2p)     0.99348      -0.10539
 127    C  6  pz     Ryd( 4p)     0.00083       0.77038
 128    C  6  pz     Ryd( 3p)     0.00017       0.30204
 129    C  6  dxy    Ryd( 4d)     0.00130       2.14423
 130    C  6  dxy    Ryd( 3d)     0.00044       1.57824
 131    C  6  dxz    Ryd( 4d)     0.00045       1.44684
 132    C  6  dxz    Ryd( 3d)     0.00024       1.16456
 133    C  6  dyz    Ryd( 4d)     0.00038       1.37705
 134    C  6  dyz    Ryd( 3d)     0.00006       1.29590
 135    C  6  dx2y2  Ryd( 4d)     0.00030       2.29831
 136    C  6  dx2y2  Ryd( 3d)     0.00091       1.59527
 137    C  6  dz2    Ryd( 4d)     0.00164       1.87969
 138    C  6  dz2    Ryd( 3d)     0.00042       1.16495
 
 139    C  7  s      Cor( 1s)     1.99894     -10.15742
 140    C  7  s      Val( 2s)     0.94815      -0.14573
 141    C  7  s      Ryd( 4s)     0.00112       1.74100
 142    C  7  s      Ryd( 3s)     0.00012       0.85508
 143    C  7  px     Val( 2p)     1.05234      -0.02981
 144    C  7  px     Ryd( 4p)     0.00408       0.99860
 145    C  7  px     Ryd( 3p)     0.00013       0.39521
 146    C  7  py     Val( 2p)     1.19058      -0.06756
 147    C  7  py     Ryd( 4p)     0.00609       1.24959
 148    C  7  py     Ryd( 3p)     0.00005       0.48562
 149    C  7  pz     Val( 2p)     0.99348      -0.10539
 150    C  7  pz     Ryd( 4p)     0.00083       0.77038
 151    C  7  pz     Ryd( 3p)     0.00017       0.30204
 152    C  7  dxy    Ryd( 4d)     0.00130       2.14424
 153    C  7  dxy    Ryd( 3d)     0.00044       1.57823
 154    C  7  dxz    Ryd( 4d)     0.00045       1.44683
 155    C  7  dxz    Ryd( 3d)     0.00024       1.16456
 156    C  7  dyz    Ryd( 4d)     0.00038       1.37705
 157    C  7  dyz    Ryd( 3d)     0.00006       1.29590
 158    C  7  dx2y2  Ryd( 4d)     0.00030       2.29831
 159    C  7  dx2y2  Ryd( 3d)     0.00091       1.59526
 160    C  7  dz2    Ryd( 4d)     0.00164       1.87969
 161    C  7  dz2    Ryd( 3d)     0.00042       1.16495
 
 162    C  8  s      Cor( 1s)     1.99899     -10.16028
 163    C  8  s      Val( 2s)     0.96013      -0.15875
 164    C  8  s      Ryd( 4s)     0.00099       1.65789
 165    C  8  s      Ryd( 3s)     0.00007       0.81504
 166    C  8  px     Val( 2p)     1.16568      -0.05913
 167    C  8  px     Ryd( 4p)     0.00536       1.10950
 168    C  8  px     Ryd( 3p)     0.00007       0.49357
 169    C  8  py     Val( 2p)     1.08655      -0.04283
 170    C  8  py     Ryd( 4p)     0.00469       1.01356
 171    C  8  py     Ryd( 3p)     0.00009       0.41560
 172    C  8  pz     Val( 2p)     1.00145      -0.10631
 173    C  8  pz     Ryd( 4p)     0.00100       0.74430
 174    C  8  pz     Ryd( 3p)     0.00010       0.30610
 175    C  8  dxy    Ryd( 4d)     0.00060       2.23576
 176    C  8  dxy    Ryd( 3d)     0.00066       1.54876
 177    C  8  dxz    Ryd( 4d)     0.00047       1.35529
 178    C  8  dxz    Ryd( 3d)     0.00009       1.26781
 179    C  8  dyz    Ryd( 4d)     0.00034       1.37563
 180    C  8  dyz    Ryd( 3d)     0.00019       1.19372
 181    C  8  dx2y2  Ryd( 4d)     0.00116       2.16255
 182    C  8  dx2y2  Ryd( 3d)     0.00049       1.54436
 183    C  8  dz2    Ryd( 4d)     0.00177       1.81136
 184    C  8  dz2    Ryd( 3d)     0.00039       1.16777
 
 185    C  9  s      Cor( 1s)     1.99899     -10.16028
 186    C  9  s      Val( 2s)     0.96007      -0.15870
 187    C  9  s      Ryd( 4s)     0.00099       1.65800
 188    C  9  s      Ryd( 3s)     0.00007       0.81491
 189    C  9  px     Val( 2p)     1.16575      -0.05912
 190    C  9  px     Ryd( 4p)     0.00536       1.10977
 191    C  9  px     Ryd( 3p)     0.00007       0.49373
 192    C  9  py     Val( 2p)     1.08654      -0.04282
 193    C  9  py     Ryd( 4p)     0.00469       1.01330
 194    C  9  py     Ryd( 3p)     0.00009       0.41563
 195    C  9  pz     Val( 2p)     1.00143      -0.10631
 196    C  9  pz     Ryd( 4p)     0.00100       0.74429
 197    C  9  pz     Ryd( 3p)     0.00010       0.30612
 198    C  9  dxy    Ryd( 4d)     0.00060       2.23558
 199    C  9  dxy    Ryd( 3d)     0.00066       1.54888
 200    C  9  dxz    Ryd( 4d)     0.00047       1.35541
 201    C  9  dxz    Ryd( 3d)     0.00009       1.26788
 202    C  9  dyz    Ryd( 4d)     0.00034       1.37579
 203    C  9  dyz    Ryd( 3d)     0.00019       1.19351
 204    C  9  dx2y2  Ryd( 4d)     0.00116       2.16279
 205    C  9  dx2y2  Ryd( 3d)     0.00050       1.54426
 206    C  9  dz2    Ryd( 4d)     0.00177       1.81154
 207    C  9  dz2    Ryd( 3d)     0.00039       1.16761
 
 208    C 10  s      Cor( 1s)     1.99894     -10.15741
 209    C 10  s      Val( 2s)     0.94808      -0.14565
 210    C 10  s      Ryd( 4s)     0.00112       1.74111
 211    C 10  s      Ryd( 3s)     0.00012       0.85506
 212    C 10  px     Val( 2p)     1.05236      -0.02979
 213    C 10  px     Ryd( 4p)     0.00408       0.99864
 214    C 10  px     Ryd( 3p)     0.00013       0.39514
 215    C 10  py     Val( 2p)     1.19061      -0.06757
 216    C 10  py     Ryd( 4p)     0.00610       1.24961
 217    C 10  py     Ryd( 3p)     0.00005       0.48555
 218    C 10  pz     Val( 2p)     0.99360      -0.10540
 219    C 10  pz     Ryd( 4p)     0.00083       0.77042
 220    C 10  pz     Ryd( 3p)     0.00017       0.30203
 221    C 10  dxy    Ryd( 4d)     0.00130       2.14418
 222    C 10  dxy    Ryd( 3d)     0.00044       1.57843
 223    C 10  dxz    Ryd( 4d)     0.00045       1.44669
 224    C 10  dxz    Ryd( 3d)     0.00024       1.16472
 225    C 10  dyz    Ryd( 4d)     0.00038       1.37682
 226    C 10  dyz    Ryd( 3d)     0.00006       1.29604
 227    C 10  dx2y2  Ryd( 4d)     0.00031       2.29837
 228    C 10  dx2y2  Ryd( 3d)     0.00091       1.59549
 229    C 10  dz2    Ryd( 4d)     0.00164       1.87956
 230    C 10  dz2    Ryd( 3d)     0.00042       1.16510
 
 231    H 11  s      Val( 1s)     0.76103       0.08322
 232    H 11  s      Ryd( 2s)     0.00078       0.47782
 233    H 11  s      Ryd( 3s)     0.00002       0.78953
 234    H 11  px     Ryd( 2p)     0.00097       0.48760
 235    H 11  px     Ryd( 3p)     0.00061       2.44956
 236    H 11  py     Ryd( 2p)     0.00161       0.52451
 237    H 11  py     Ryd( 3p)     0.00032       2.23183
 238    H 11  pz     Ryd( 2p)     0.00005       0.47575
 239    H 11  pz     Ryd( 3p)     0.00018       1.87487
 
 240    H 12  s      Val( 1s)     0.76104       0.08322
 241    H 12  s      Ryd( 2s)     0.00078       0.47781
 242    H 12  s      Ryd( 3s)     0.00002       0.78955
 243    H 12  px     Ryd( 2p)     0.00097       0.48732
 244    H 12  px     Ryd( 3p)     0.00061       2.45000
 245    H 12  py     Ryd( 2p)     0.00161       0.52437
 246    H 12  py     Ryd( 3p)     0.00032       2.23193
 247    H 12  pz     Ryd( 2p)     0.00005       0.47563
 248    H 12  pz     Ryd( 3p)     0.00018       1.87499
 
 249    H 13  s      Val( 1s)     0.76245       0.07768
 250    H 13  s      Ryd( 2s)     0.00085       0.50988
 251    H 13  s      Ryd( 3s)     0.00003       0.74628
 252    H 13  px     Ryd( 2p)     0.00136       0.71279
 253    H 13  px     Ryd( 3p)     0.00028       2.05474
 254    H 13  py     Ryd( 2p)     0.00101       0.63960
 255    H 13  py     Ryd( 3p)     0.00057       2.45728
 256    H 13  pz     Ryd( 2p)     0.00004       0.55820
 257    H 13  pz     Ryd( 3p)     0.00017       1.81523
 
 258    H 14  s      Val( 1s)     0.76245       0.07769
 259    H 14  s      Ryd( 2s)     0.00085       0.50967
 260    H 14  s      Ryd( 3s)     0.00003       0.74683
 261    H 14  px     Ryd( 2p)     0.00136       0.71310
 262    H 14  px     Ryd( 3p)     0.00028       2.05450
 263    H 14  py     Ryd( 2p)     0.00101       0.63982
 264    H 14  py     Ryd( 3p)     0.00057       2.45694
 265    H 14  pz     Ryd( 2p)     0.00004       0.55839
 266    H 14  pz     Ryd( 3p)     0.00017       1.81499
 
 267    H 15  s      Val( 1s)     0.76245       0.07769
 268    H 15  s      Ryd( 2s)     0.00085       0.50967
 269    H 15  s      Ryd( 3s)     0.00003       0.74682
 270    H 15  px     Ryd( 2p)     0.00136       0.71309
 271    H 15  px     Ryd( 3p)     0.00028       2.05450
 272    H 15  py     Ryd( 2p)     0.00101       0.63981
 273    H 15  py     Ryd( 3p)     0.00057       2.45695
 274    H 15  pz     Ryd( 2p)     0.00004       0.55839
 275    H 15  pz     Ryd( 3p)     0.00017       1.81500
 
 276    H 16  s      Val( 1s)     0.76103       0.08322
 277    H 16  s      Ryd( 2s)     0.00078       0.47782
 278    H 16  s      Ryd( 3s)     0.00002       0.78951
 279    H 16  px     Ryd( 2p)     0.00097       0.48759
 280    H 16  px     Ryd( 3p)     0.00061       2.44957
 281    H 16  py     Ryd( 2p)     0.00161       0.52449
 282    H 16  py     Ryd( 3p)     0.00032       2.23184
 283    H 16  pz     Ryd( 2p)     0.00005       0.47575
 284    H 16  pz     Ryd( 3p)     0.00018       1.87488
 
 285    H 17  s      Val( 1s)     0.76104       0.08322
 286    H 17  s      Ryd( 2s)     0.00078       0.47781
 287    H 17  s      Ryd( 3s)     0.00002       0.78956
 288    H 17  px     Ryd( 2p)     0.00097       0.48732
 289    H 17  px     Ryd( 3p)     0.00061       2.45000
 290    H 17  py     Ryd( 2p)     0.00161       0.52438
 291    H 17  py     Ryd( 3p)     0.00032       2.23192
 292    H 17  pz     Ryd( 2p)     0.00005       0.47564
 293    H 17  pz     Ryd( 3p)     0.00018       1.87499
 
 294    H 18  s      Val( 1s)     0.76245       0.07768
 295    H 18  s      Ryd( 2s)     0.00085       0.50987
 296    H 18  s      Ryd( 3s)     0.00003       0.74628
 297    H 18  px     Ryd( 2p)     0.00136       0.71280
 298    H 18  px     Ryd( 3p)     0.00028       2.05474
 299    H 18  py     Ryd( 2p)     0.00101       0.63960
 300    H 18  py     Ryd( 3p)     0.00057       2.45728
 301    H 18  pz     Ryd( 2p)     0.00004       0.55820
 302    H 18  pz     Ryd( 3p)     0.00017       1.81522
 
   1 low occupancy (<1.9990e) core orbital  found on  C  1
   1 low occupancy (<1.9990e) core orbital  found on  C  2
   1 low occupancy (<1.9990e) core orbital  found on  C  3
   1 low occupancy (<1.9990e) core orbital  found on  C  4
   1 low occupancy (<1.9990e) core orbital  found on  C  5
   1 low occupancy (<1.9990e) core orbital  found on  C  6
   1 low occupancy (<1.9990e) core orbital  found on  C  7
   1 low occupancy (<1.9990e) core orbital  found on  C  8
   1 low occupancy (<1.9990e) core orbital  found on  C  9
   1 low occupancy (<1.9990e) core orbital  found on  C 10
 
     Population inversion found on atom  C  1
     Population inversion found on atom  C  2
     Population inversion found on atom  C  3
     Population inversion found on atom  C  4
     Population inversion found on atom  C  5
     Population inversion found on atom  C  6
     Population inversion found on atom  C  7
     Population inversion found on atom  C  8
     Population inversion found on atom  C  9
     Population inversion found on atom  C 10
     Population inversion found on atom  H 11
     Population inversion found on atom  H 12
     Population inversion found on atom  H 13
     Population inversion found on atom  H 14
     Population inversion found on atom  H 15
     Population inversion found on atom  H 16
     Population inversion found on atom  H 17
     Population inversion found on atom  H 18


 Summary of Natural Population Analysis:

                                     Natural Population
             Natural    ---------------------------------------------
  Atom No    Charge        Core      Valence    Rydberg      Total
 --------------------------------------------------------------------
    C  1   -0.23135      1.99899     4.21380    0.01856     6.23135
    C  2   -0.23134      1.99899     4.21380    0.01856     6.23134
    C  3   -0.20232      1.99894     4.18464    0.01873     6.20232
    C  4   -0.06804      1.99888     4.05004    0.01912     6.06804
    C  5   -0.06809      1.99888     4.05009    0.01912     6.06809
    C  6   -0.20223      1.99894     4.18456    0.01873     6.20223
    C  7   -0.20222      1.99894     4.18455    0.01873     6.20222
    C  8   -0.23136      1.99899     4.21381    0.01856     6.23136
    C  9   -0.23134      1.99899     4.21379    0.01856     6.23134
    C 10   -0.20232      1.99894     4.18465    0.01873     6.20232
    H 11    0.23443      0.00000     0.76103    0.00454     0.76557
    H 12    0.23442      0.00000     0.76104    0.00454     0.76558
    H 13    0.23323      0.00000     0.76245    0.00432     0.76677
    H 14    0.23323      0.00000     0.76245    0.00432     0.76677
    H 15    0.23323      0.00000     0.76245    0.00432     0.76677
    H 16    0.23443      0.00000     0.76103    0.00454     0.76557
    H 17    0.23442      0.00000     0.76104    0.00454     0.76558
    H 18    0.23323      0.00000     0.76245    0.00432     0.76677
 ====================================================================
 * Total *  0.00000     19.98947    47.78769    0.22284    68.00000

                                 Natural Population      
 --------------------------------------------------------
   Core                      19.98947 ( 99.9473% of  20)
   Valence                   47.78769 ( 99.5577% of  48)
   Natural Minimal Basis     67.77716 ( 99.6723% of  68)
   Natural Rydberg Basis      0.22284 (  0.3277% of  68)
 --------------------------------------------------------

    Atom No         Natural Electron Configuration
 ----------------------------------------------------------------------------
      C  1      [core]2s( 0.96)2p( 3.25)4p( 0.01)
      C  2      [core]2s( 0.96)2p( 3.25)4p( 0.01)
      C  3      [core]2s( 0.95)2p( 3.24)4p( 0.01)
      C  4      [core]2s( 0.87)2p( 3.18)4p( 0.01)
      C  5      [core]2s( 0.87)2p( 3.18)4p( 0.01)
      C  6      [core]2s( 0.95)2p( 3.24)4p( 0.01)
      C  7      [core]2s( 0.95)2p( 3.24)4p( 0.01)
      C  8      [core]2s( 0.96)2p( 3.25)4p( 0.01)
      C  9      [core]2s( 0.96)2p( 3.25)4p( 0.01)
      C 10      [core]2s( 0.95)2p( 3.24)4p( 0.01)
      H 11            1s( 0.76)
      H 12            1s( 0.76)
      H 13            1s( 0.76)
      H 14            1s( 0.76)
      H 15            1s( 0.76)
      H 16            1s( 0.76)
      H 17            1s( 0.76)
      H 18            1s( 0.76)


 NATURAL BOND ORBITAL ANALYSIS:

                       Occupancies       Lewis Structure    Low   High
           Occ.    -------------------  -----------------   occ   occ
  Cycle   Thresh.   Lewis   Non-Lewis     CR  BD  3C  LP    (L)   (NL)   Dev
 =============================================================================
   1(1)    1.90    62.56323   5.43677     10  19   0   5     5      5    0.57
   2(2)    1.90    62.56323   5.43677     10  19   0   5     5      5    0.57
   3(1)    1.80    62.56323   5.43677     10  19   0   5     5      5    0.57
   4(2)    1.80    62.56323   5.43677     10  19   0   5     5      5    0.57
   5(1)    1.70    65.58042   2.41958     10  23   0   1     1      5    0.29
   6(2)    1.70    65.58042   2.41958     10  23   0   1     1      5    0.29
   7(1)    1.60    65.58042   2.41958     10  23   0   1     1      5    0.29
   8(2)    1.60    65.58042   2.41958     10  23   0   1     1      5    0.29
   9(1)    1.50    64.71980   3.28020     10  23   0   1     1      5    0.57
  10(2)    1.50    65.17526   2.82474     10  23   0   1     1      5    0.57
  11(3)    1.50    66.13669   1.86331     10  24   0   0     0      5    0.29
  12(4)    1.50    65.68123   2.31877     10  24   0   0     0      5    0.57
  13(5)    1.50    66.13669   1.86331     10  24   0   0     0      5    0.29
 -----------------------------------------------------------------------------

 Strongly delocalized structure accepted

           1 low occupancy (<1.9990e) core orbital  found on  C 1
           1 low occupancy (<1.9990e) core orbital  found on  C 2
           1 low occupancy (<1.9990e) core orbital  found on  C 3
           1 low occupancy (<1.9990e) core orbital  found on  C 4
           1 low occupancy (<1.9990e) core orbital  found on  C 5
           1 low occupancy (<1.9990e) core orbital  found on  C 6
           1 low occupancy (<1.9990e) core orbital  found on  C 7
           1 low occupancy (<1.9990e) core orbital  found on  C 8
           1 low occupancy (<1.9990e) core orbital  found on  C 9
           1 low occupancy (<1.9990e) core orbital  found on  C10

 --------------------------------------------------------
   Core                     19.98950 ( 99.947% of  20)
   Valence Lewis            46.14719 ( 96.140% of  48)
  ==================       ============================
   Total Lewis              66.13669 ( 97.260% of  68)
  -----------------------------------------------------
   Valence non-Lewis         1.72076 (  2.531% of  68)
   Rydberg non-Lewis         0.14255 (  0.210% of  68)
  ==================       ============================
   Total non-Lewis           1.86331 (  2.740% of  68)
 --------------------------------------------------------


     (Occupancy)   Bond orbital/ Coefficients/ Hybrids
 -------------------------------------------------------------------------------
   1. (1.97600) BD ( 1) C  1- C  2       
               ( 50.00%)   0.7071* C  1 s( 34.39%)p 1.90( 65.44%)d 0.00(  0.17%)
                                         0.0000  0.5864  0.0091  0.0013  0.0241
                                         0.0380  0.0014  0.8076  0.0110 -0.0055
                                         0.0000 -0.0000 -0.0000 -0.0066  0.0025
                                        -0.0000  0.0000  0.0000 -0.0000 -0.0258
                                         0.0004 -0.0293  0.0116
               ( 50.00%)   0.7071* C  2 s( 34.39%)p 1.90( 65.43%)d 0.00(  0.17%)
                                         0.0000  0.5864  0.0091  0.0013  0.0240
                                         0.0380  0.0014 -0.8076 -0.0110  0.0054
                                        -0.0000 -0.0000  0.0000  0.0066 -0.0025
                                         0.0000 -0.0000  0.0000 -0.0000 -0.0258
                                         0.0004 -0.0293  0.0116
   2. (1.97798) BD ( 1) C  1- C  6       
               ( 49.75%)   0.7053* C  1 s( 36.20%)p 1.76( 63.62%)d 0.00(  0.18%)
                                         0.0000  0.6015  0.0139  0.0000 -0.6788
                                         0.0074  0.0059 -0.4170 -0.0389  0.0018
                                         0.0001  0.0000 -0.0000  0.0201 -0.0004
                                        -0.0000  0.0000 -0.0000 -0.0000  0.0192
                                        -0.0032 -0.0296  0.0123
               ( 50.25%)   0.7089* C  6 s( 36.51%)p 1.74( 63.34%)d 0.00(  0.15%)
                                         0.0001  0.6040  0.0169 -0.0011  0.6960
                                         0.0310 -0.0031  0.3839 -0.0272 -0.0030
                                        -0.0000 -0.0000  0.0000  0.0230 -0.0003
                                        -0.0000 -0.0000 -0.0000 -0.0000  0.0071
                                        -0.0004 -0.0275 -0.0131
   3. (1.75660) BD ( 2) C  1- C  6       
               ( 50.27%)   0.7090* C  1 s(  0.00%)p 1.00( 99.94%)d 0.00(  0.06%)
                                        -0.0000 -0.0000 -0.0000  0.0000  0.0001
                                        -0.0000 -0.0000 -0.0000  0.0000 -0.0000
                                         0.9995 -0.0178  0.0094 -0.0000  0.0000
                                        -0.0229 -0.0088 -0.0013 -0.0024 -0.0000
                                        -0.0000  0.0000 -0.0000
               ( 49.73%)   0.7052* C  6 s(  0.00%)p 1.00( 99.94%)d 0.00(  0.06%)
                                         0.0000  0.0000 -0.0000  0.0000  0.0001
                                        -0.0000  0.0000 -0.0001  0.0000 -0.0000
                                         0.9995 -0.0117  0.0125  0.0000  0.0000
                                         0.0117 -0.0085  0.0199 -0.0065  0.0000
                                        -0.0000 -0.0000  0.0000
   4. (1.98163) BD ( 1) C  1- H 11       
               ( 61.93%)   0.7870* C  1 s( 29.20%)p 2.42( 70.73%)d 0.00(  0.07%)
                                        -0.0003  0.5401 -0.0186 -0.0014  0.7322
                                        -0.0058  0.0000 -0.4137  0.0030  0.0000
                                        -0.0001 -0.0000 -0.0000 -0.0065 -0.0178
                                        -0.0000 -0.0000  0.0000  0.0000  0.0038
                                         0.0110 -0.0104 -0.0070
               ( 38.07%)   0.6170* H 11 s( 99.84%)p 0.00(  0.16%)
                                         0.9992 -0.0022  0.0002 -0.0237 -0.0252
                                         0.0129  0.0148  0.0000  0.0000
   5. (1.97798) BD ( 1) C  2- C  3       
               ( 49.75%)   0.7053* C  2 s( 36.21%)p 1.76( 63.61%)d 0.00(  0.18%)
                                         0.0000  0.6016  0.0139  0.0000 -0.6786
                                         0.0075  0.0059  0.4171  0.0389 -0.0018
                                         0.0000 -0.0000  0.0000 -0.0201  0.0004
                                         0.0000 -0.0000 -0.0000 -0.0000  0.0191
                                        -0.0033 -0.0296  0.0123
               ( 50.25%)   0.7089* C  3 s( 36.52%)p 1.73( 63.33%)d 0.00(  0.15%)
                                         0.0001  0.6041  0.0170 -0.0011  0.6957
                                         0.0310 -0.0031 -0.3841  0.0272  0.0030
                                         0.0000  0.0000 -0.0000 -0.0230  0.0003
                                         0.0000  0.0000 -0.0000 -0.0000  0.0071
                                        -0.0004 -0.0275 -0.0131
   6. (1.75667) BD ( 2) C  2- C  3       
               ( 50.26%)   0.7090* C  2 s(  0.00%)p 1.00( 99.94%)d 0.00(  0.06%)
                                         0.0000  0.0000 -0.0000 -0.0000  0.0000
                                        -0.0000  0.0000 -0.0000 -0.0000  0.0000
                                         0.9995 -0.0178  0.0094  0.0000 -0.0000
                                        -0.0230 -0.0088  0.0013  0.0024  0.0000
                                         0.0000 -0.0000  0.0000
               ( 49.74%)   0.7052* C  3 s(  0.00%)p 1.00( 99.94%)d 0.00(  0.06%)
                                        -0.0000 -0.0000 -0.0000 -0.0000 -0.0000
                                        -0.0000  0.0000 -0.0000  0.0000 -0.0000
                                         0.9995 -0.0117  0.0125  0.0000  0.0000
                                         0.0117 -0.0085 -0.0199  0.0065  0.0000
                                         0.0000  0.0000 -0.0000
   7. (1.98162) BD ( 1) C  2- H 12       
               ( 61.93%)   0.7870* C  2 s( 29.19%)p 2.42( 70.75%)d 0.00(  0.07%)
                                        -0.0003  0.5399 -0.0186 -0.0014  0.7324
                                        -0.0058  0.0000  0.4135 -0.0030 -0.0000
                                        -0.0000  0.0000  0.0000  0.0065  0.0178
                                        -0.0000 -0.0000 -0.0000 -0.0000  0.0038
                                         0.0111 -0.0104 -0.0070
               ( 38.07%)   0.6170* H 12 s( 99.84%)p 0.00(  0.16%)
                                         0.9992 -0.0022  0.0002 -0.0237 -0.0252
                                        -0.0129 -0.0148  0.0000  0.0000
   8. (1.97286) BD ( 1) C  3- C  4       
               ( 48.40%)   0.6957* C  3 s( 34.19%)p 1.92( 65.63%)d 0.01(  0.18%)
                                         0.0000  0.5846  0.0056  0.0050 -0.7167
                                        -0.0121  0.0074 -0.3769  0.0201  0.0032
                                        -0.0000 -0.0000  0.0000  0.0263  0.0068
                                         0.0000 -0.0000 -0.0000 -0.0000  0.0094
                                        -0.0003 -0.0293 -0.0126
               ( 51.60%)   0.7183* C  4 s( 33.54%)p 1.98( 66.35%)d 0.00(  0.11%)
                                         0.0000  0.5792  0.0029 -0.0026  0.7068
                                        -0.0124 -0.0006  0.4043  0.0176  0.0001
                                         0.0000 -0.0000 -0.0000  0.0154 -0.0032
                                         0.0000  0.0000  0.0000 -0.0000  0.0078
                                         0.0037 -0.0075 -0.0262
   9. (1.98050) BD ( 1) C  3- H 13       
               ( 61.86%)   0.7865* C  3 s( 29.07%)p 2.44( 70.86%)d 0.00(  0.07%)
                                        -0.0003  0.5388 -0.0179 -0.0034 -0.0033
                                         0.0076  0.0026  0.8417 -0.0040 -0.0022
                                         0.0001  0.0000 -0.0000 -0.0013 -0.0012
                                         0.0000  0.0000  0.0000 -0.0000 -0.0077
                                         0.0220 -0.0118  0.0048
               ( 38.14%)   0.6176* H 13 s( 99.82%)p 0.00(  0.18%)
                                         0.9991 -0.0023  0.0001 -0.0040  0.0002
                                        -0.0340 -0.0242 -0.0000 -0.0000
  10. (1.96230) BD ( 1) C  4- C  5       
               ( 50.00%)   0.7071* C  4 s( 32.62%)p 2.06( 67.27%)d 0.00(  0.12%)
                                        -0.0001  0.5711 -0.0038  0.0055  0.0000
                                        -0.0000 -0.0000 -0.8201  0.0094  0.0069
                                         0.0001  0.0000 -0.0000  0.0000 -0.0000
                                         0.0000  0.0000 -0.0000 -0.0000 -0.0165
                                        -0.0061 -0.0089 -0.0283
               ( 50.00%)   0.7071* C  5 s( 32.64%)p 2.06( 67.24%)d 0.00(  0.12%)
                                        -0.0001  0.5712 -0.0038  0.0055  0.0000
                                         0.0000  0.0000  0.8199 -0.0095 -0.0069
                                        -0.0000 -0.0000  0.0000  0.0000  0.0000
                                         0.0000  0.0000 -0.0000 -0.0000 -0.0165
                                        -0.0061 -0.0088 -0.0283
  11. (1.55447) BD ( 2) C  4- C  5       
               ( 50.00%)   0.7071* C  4 s(  0.00%)p 1.00( 99.98%)d 0.00(  0.02%)
                                        -0.0000 -0.0000 -0.0000 -0.0000 -0.0000
                                        -0.0000 -0.0000  0.0001  0.0000 -0.0000
                                         0.9998  0.0100  0.0046  0.0000 -0.0000
                                        -0.0000 -0.0000 -0.0158 -0.0000  0.0000
                                        -0.0000  0.0000  0.0000
               ( 50.00%)   0.7071* C  5 s(  0.00%)p 1.00( 99.98%)d 0.00(  0.02%)
                                         0.0000  0.0000  0.0000  0.0000 -0.0000
                                        -0.0000 -0.0000  0.0000  0.0000 -0.0000
                                         0.9998  0.0100  0.0046  0.0000  0.0000
                                         0.0000  0.0000  0.0157  0.0001 -0.0000
                                         0.0000 -0.0000 -0.0000
  12. (1.97286) BD ( 1) C  4- C 10       
               ( 51.59%)   0.7183* C  4 s( 33.54%)p 1.98( 66.35%)d 0.00(  0.11%)
                                         0.0000  0.5792  0.0029 -0.0026 -0.7068
                                         0.0124  0.0006  0.4043  0.0176  0.0001
                                        -0.0000 -0.0000 -0.0000 -0.0154  0.0032
                                         0.0000 -0.0000 -0.0000 -0.0000  0.0078
                                         0.0037 -0.0075 -0.0262
               ( 48.41%)   0.6957* C 10 s( 34.19%)p 1.92( 65.63%)d 0.01(  0.18%)
                                         0.0000  0.5847  0.0056  0.0050  0.7167
                                         0.0121 -0.0074 -0.3769  0.0201  0.0032
                                        -0.0000 -0.0000 -0.0000 -0.0263 -0.0068
                                         0.0000  0.0000 -0.0000 -0.0000  0.0094
                                        -0.0003 -0.0293 -0.0126
  13. (1.97286) BD ( 1) C  5- C  6       
               ( 51.59%)   0.7183* C  5 s( 33.53%)p 1.98( 66.36%)d 0.00(  0.11%)
                                         0.0000  0.5791  0.0029 -0.0026  0.7068
                                        -0.0124 -0.0006 -0.4044 -0.0175 -0.0001
                                         0.0000  0.0000  0.0000 -0.0155  0.0032
                                         0.0000 -0.0000 -0.0000  0.0000  0.0077
                                         0.0037 -0.0075 -0.0262
               ( 48.41%)   0.6957* C  6 s( 34.20%)p 1.92( 65.62%)d 0.01(  0.18%)
                                         0.0000  0.5847  0.0056  0.0050 -0.7165
                                        -0.0121  0.0074  0.3772 -0.0201 -0.0032
                                         0.0001  0.0000  0.0000 -0.0263 -0.0068
                                         0.0000  0.0000 -0.0000 -0.0000  0.0094
                                        -0.0003 -0.0293 -0.0126
  14. (1.97286) BD ( 1) C  5- C  7       
               ( 51.59%)   0.7183* C  5 s( 33.53%)p 1.98( 66.36%)d 0.00(  0.11%)
                                         0.0000  0.5791  0.0029 -0.0026 -0.7068
                                         0.0124  0.0006 -0.4044 -0.0175 -0.0001
                                        -0.0000  0.0000  0.0000  0.0155 -0.0032
                                         0.0000  0.0000  0.0000  0.0000  0.0077
                                         0.0037 -0.0075 -0.0262
               ( 48.41%)   0.6957* C  7 s( 34.20%)p 1.92( 65.62%)d 0.01(  0.18%)
                                         0.0000  0.5847  0.0056  0.0050  0.7165
                                         0.0121 -0.0074  0.3772 -0.0201 -0.0032
                                         0.0001  0.0000 -0.0000  0.0263  0.0068
                                         0.0000 -0.0000  0.0000 -0.0000  0.0094
                                        -0.0003 -0.0293 -0.0126
  15. (1.98052) BD ( 1) C  6- H 14       
               ( 61.86%)   0.7865* C  6 s( 29.07%)p 2.44( 70.86%)d 0.00(  0.07%)
                                         0.0003 -0.5389  0.0179  0.0034  0.0035
                                        -0.0076 -0.0026  0.8417 -0.0040 -0.0022
                                         0.0001 -0.0000 -0.0000 -0.0013 -0.0012
                                         0.0000  0.0000 -0.0000  0.0000  0.0077
                                        -0.0220  0.0118 -0.0048
               ( 38.14%)   0.6176* H 14 s( 99.82%)p 0.00(  0.18%)
                                        -0.9991  0.0023 -0.0001  0.0039 -0.0002
                                        -0.0340 -0.0242 -0.0000 -0.0000
  16. (1.97798) BD ( 1) C  7- C  8       
               ( 50.25%)   0.7089* C  7 s( 36.51%)p 1.74( 63.34%)d 0.00(  0.15%)
                                         0.0001  0.6040  0.0169 -0.0011 -0.6959
                                        -0.0310  0.0031  0.3839 -0.0272 -0.0030
                                        -0.0000 -0.0000  0.0000 -0.0230  0.0003
                                         0.0000  0.0000 -0.0000  0.0000  0.0071
                                        -0.0004 -0.0275 -0.0131
               ( 49.75%)   0.7053* C  8 s( 36.20%)p 1.76( 63.62%)d 0.00(  0.18%)
                                         0.0000  0.6015  0.0139  0.0000  0.6788
                                        -0.0074 -0.0059 -0.4170 -0.0389  0.0018
                                        -0.0000  0.0000 -0.0000 -0.0201  0.0004
                                         0.0000 -0.0000 -0.0000 -0.0000  0.0192
                                        -0.0032 -0.0296  0.0123
  17. (1.75660) BD ( 2) C  7- C  8       
               ( 49.73%)   0.7052* C  7 s(  0.00%)p 1.00( 99.94%)d 0.00(  0.06%)
                                         0.0000  0.0000  0.0000  0.0000 -0.0001
                                        -0.0000  0.0000 -0.0001  0.0000 -0.0000
                                         0.9995 -0.0117  0.0125 -0.0000 -0.0000
                                        -0.0117  0.0085  0.0199 -0.0065  0.0000
                                        -0.0000 -0.0000  0.0000
               ( 50.27%)   0.7090* C  8 s(  0.00%)p 1.00( 99.94%)d 0.00(  0.06%)
                                        -0.0000 -0.0000  0.0000  0.0000  0.0000
                                        -0.0000  0.0000 -0.0000 -0.0000  0.0000
                                         0.9995 -0.0178  0.0094 -0.0000  0.0000
                                         0.0229  0.0088 -0.0013 -0.0024 -0.0000
                                        -0.0000  0.0000 -0.0000
  18. (1.98052) BD ( 1) C  7- H 15       
               ( 61.86%)   0.7865* C  7 s( 29.07%)p 2.44( 70.86%)d 0.00(  0.07%)
                                         0.0003 -0.5389  0.0179  0.0034 -0.0035
                                         0.0076  0.0026  0.8417 -0.0040 -0.0022
                                         0.0001  0.0000 -0.0000  0.0013  0.0012
                                        -0.0000 -0.0000 -0.0000  0.0000  0.0077
                                        -0.0220  0.0118 -0.0048
               ( 38.14%)   0.6176* H 15 s( 99.82%)p 0.00(  0.18%)
                                        -0.9991  0.0023 -0.0001 -0.0039  0.0002
                                        -0.0340 -0.0242 -0.0000 -0.0000
  19. (1.97600) BD ( 1) C  8- C  9       
               ( 50.00%)   0.7071* C  8 s( 34.39%)p 1.90( 65.43%)d 0.00(  0.17%)
                                         0.0000  0.5864  0.0091  0.0013 -0.0241
                                        -0.0380 -0.0014  0.8076  0.0110 -0.0055
                                         0.0000  0.0000 -0.0000  0.0066 -0.0025
                                         0.0000 -0.0000  0.0000 -0.0000 -0.0258
                                         0.0004 -0.0293  0.0116
               ( 50.00%)   0.7071* C  9 s( 34.39%)p 1.90( 65.43%)d 0.00(  0.17%)
                                         0.0000  0.5864  0.0091  0.0013 -0.0240
                                        -0.0380 -0.0014 -0.8076 -0.0110  0.0054
                                        -0.0000 -0.0000  0.0000 -0.0066  0.0025
                                        -0.0000  0.0000  0.0000 -0.0000 -0.0258
                                         0.0004 -0.0293  0.0116
  20. (1.98163) BD ( 1) C  8- H 16       
               ( 61.93%)   0.7870* C  8 s( 29.20%)p 2.42( 70.73%)d 0.00(  0.07%)
                                         0.0003 -0.5401  0.0186  0.0014  0.7322
                                        -0.0058  0.0000  0.4137 -0.0030 -0.0000
                                        -0.0000  0.0000  0.0000 -0.0065 -0.0178
                                         0.0000  0.0000  0.0000  0.0000 -0.0038
                                        -0.0110  0.0104  0.0070
               ( 38.07%)   0.6170* H 16 s( 99.84%)p 0.00(  0.16%)
                                        -0.9992  0.0022 -0.0002 -0.0237 -0.0252
                                        -0.0129 -0.0148  0.0000  0.0000
  21. (1.97797) BD ( 1) C  9- C 10       
               ( 49.75%)   0.7053* C  9 s( 36.21%)p 1.76( 63.61%)d 0.00(  0.18%)
                                         0.0000  0.6016  0.0139  0.0000  0.6786
                                        -0.0075 -0.0059  0.4171  0.0389 -0.0018
                                        -0.0001 -0.0000  0.0000  0.0201 -0.0004
                                        -0.0000  0.0000 -0.0000 -0.0000  0.0191
                                        -0.0033 -0.0296  0.0123
               ( 50.25%)   0.7089* C 10 s( 36.52%)p 1.73( 63.33%)d 0.00(  0.15%)
                                         0.0001  0.6041  0.0170 -0.0011 -0.6958
                                        -0.0310  0.0031 -0.3841  0.0272  0.0030
                                         0.0000  0.0000 -0.0000  0.0230 -0.0003
                                        -0.0000 -0.0000 -0.0000 -0.0000  0.0071
                                        -0.0004 -0.0275 -0.0131
  22. (1.75666) BD ( 2) C  9- C 10       
               ( 50.26%)   0.7090* C  9 s(  0.00%)p 1.00( 99.94%)d 0.00(  0.06%)
                                         0.0000  0.0000  0.0000 -0.0000  0.0001
                                        -0.0000 -0.0000 -0.0000  0.0000  0.0000
                                         0.9995 -0.0178  0.0094  0.0000 -0.0000
                                         0.0230  0.0088  0.0013  0.0024  0.0000
                                         0.0000 -0.0000  0.0000
               ( 49.74%)   0.7052* C 10 s(  0.00%)p 1.00( 99.94%)d 0.00(  0.06%)
                                        -0.0000 -0.0000  0.0000 -0.0000  0.0000
                                        -0.0000  0.0000 -0.0000  0.0000 -0.0000
                                         0.9995 -0.0117  0.0125 -0.0000 -0.0000
                                        -0.0117  0.0085 -0.0199  0.0065 -0.0000
                                         0.0000  0.0000 -0.0000
  23. (1.98162) BD ( 1) C  9- H 17       
               ( 61.93%)   0.7870* C  9 s( 29.19%)p 2.42( 70.75%)d 0.00(  0.07%)
                                         0.0003 -0.5399  0.0186  0.0014  0.7324
                                        -0.0058  0.0000 -0.4135  0.0030  0.0000
                                        -0.0001 -0.0000 -0.0000  0.0065  0.0178
                                         0.0000  0.0000 -0.0000 -0.0000 -0.0038
                                        -0.0111  0.0104  0.0070
               ( 38.07%)   0.6170* H 17 s( 99.84%)p 0.00(  0.16%)
                                        -0.9992  0.0022 -0.0002 -0.0237 -0.0252
                                         0.0129  0.0148  0.0000  0.0000
  24. (1.98050) BD ( 1) C 10- H 18       
               ( 61.86%)   0.7865* C 10 s( 29.07%)p 2.44( 70.86%)d 0.00(  0.07%)
                                        -0.0003  0.5388 -0.0179 -0.0034  0.0033
                                        -0.0076 -0.0026  0.8417 -0.0040 -0.0022
                                         0.0000 -0.0000 -0.0000  0.0013  0.0012
                                        -0.0000 -0.0000  0.0000 -0.0000 -0.0077
                                         0.0220 -0.0118  0.0048
               ( 38.14%)   0.6176* H 18 s( 99.82%)p 0.00(  0.18%)
                                         0.9991 -0.0023  0.0001  0.0040 -0.0002
                                        -0.0340 -0.0242 -0.0000 -0.0000
  25. (1.99900) CR ( 1) C  1             s(100.00%)p 0.00(  0.00%)
                                         1.0000  0.0001 -0.0000 -0.0000  0.0002
                                        -0.0000 -0.0000 -0.0001  0.0000  0.0000
                                         0.0000 -0.0000  0.0000 -0.0000 -0.0000
                                        -0.0000 -0.0000  0.0000  0.0000  0.0000
                                         0.0000 -0.0000 -0.0000
  26. (1.99900) CR ( 1) C  2             s(100.00%)p 0.00(  0.00%)
                                         1.0000  0.0001 -0.0000 -0.0000  0.0002
                                        -0.0000 -0.0000  0.0001 -0.0000 -0.0000
                                        -0.0000  0.0000 -0.0000  0.0000  0.0000
                                         0.0000  0.0000 -0.0000 -0.0000  0.0000
                                         0.0000 -0.0000 -0.0000
  27. (1.99894) CR ( 1) C  3             s(100.00%)p 0.00(  0.00%)
                                         1.0000  0.0001 -0.0000 -0.0000 -0.0000
                                         0.0000  0.0000  0.0003 -0.0000 -0.0000
                                         0.0000 -0.0000  0.0000  0.0000 -0.0000
                                         0.0000 -0.0000 -0.0000  0.0000 -0.0000
                                         0.0000 -0.0000  0.0000
  28. (1.99887) CR ( 1) C  4             s(100.00%)
                                         1.0000  0.0000 -0.0000  0.0000  0.0000
                                        -0.0000 -0.0000 -0.0001  0.0000  0.0000
                                         0.0000  0.0000  0.0000  0.0000 -0.0000
                                        -0.0000  0.0000 -0.0000 -0.0000 -0.0000
                                        -0.0000 -0.0000 -0.0000
  29. (1.99888) CR ( 1) C  5             s(100.00%)
                                         1.0000  0.0000 -0.0000  0.0000 -0.0000
                                         0.0000  0.0000  0.0001 -0.0000 -0.0000
                                        -0.0000 -0.0000 -0.0000  0.0000 -0.0000
                                        -0.0000  0.0000 -0.0000 -0.0000 -0.0000
                                        -0.0000 -0.0000 -0.0000
  30. (1.99894) CR ( 1) C  6             s(100.00%)p 0.00(  0.00%)
                                         1.0000  0.0001 -0.0000 -0.0000 -0.0000
                                         0.0000  0.0000 -0.0003  0.0000  0.0000
                                        -0.0000  0.0000 -0.0000 -0.0000  0.0000
                                        -0.0000  0.0000 -0.0000  0.0000 -0.0000
                                         0.0000 -0.0000  0.0000
  31. (1.99894) CR ( 1) C  7             s(100.00%)p 0.00(  0.00%)
                                         1.0000  0.0001 -0.0000 -0.0000  0.0000
                                        -0.0000 -0.0000 -0.0003  0.0000  0.0000
                                        -0.0000  0.0000 -0.0000  0.0000 -0.0000
                                         0.0000 -0.0000 -0.0000  0.0000 -0.0000
                                         0.0000 -0.0000  0.0000
  32. (1.99900) CR ( 1) C  8             s(100.00%)p 0.00(  0.00%)
                                         1.0000  0.0001 -0.0000 -0.0000 -0.0002
                                         0.0000  0.0000 -0.0001  0.0000  0.0000
                                         0.0000 -0.0000  0.0000  0.0000  0.0000
                                         0.0000  0.0000 -0.0000 -0.0000  0.0000
                                         0.0000 -0.0000 -0.0000
  33. (1.99900) CR ( 1) C  9             s(100.00%)p 0.00(  0.00%)
                                         1.0000  0.0001 -0.0000 -0.0000 -0.0002
                                         0.0000  0.0000  0.0001 -0.0000 -0.0000
                                        -0.0000  0.0000 -0.0000 -0.0000 -0.0000
                                        -0.0000 -0.0000 -0.0000 -0.0000  0.0000
                                         0.0000 -0.0000 -0.0000
  34. (1.99894) CR ( 1) C 10             s(100.00%)p 0.00(  0.00%)
                                         1.0000  0.0001 -0.0000 -0.0000  0.0000
                                        -0.0000 -0.0000  0.0003 -0.0000 -0.0000
                                         0.0000 -0.0000  0.0000 -0.0000  0.0000
                                        -0.0000  0.0000 -0.0000  0.0000 -0.0000
                                         0.0000 -0.0000  0.0000
  35. (0.00522) RY*( 1) C  1             s(  0.12%)p99.99( 93.85%)d48.97(  6.03%)
                                         0.0000 -0.0232 -0.0011  0.0263  0.0261
                                         0.8036  0.0121 -0.0134 -0.5399  0.0133
                                        -0.0000  0.0000 -0.0000  0.0755  0.1835
                                        -0.0000  0.0000  0.0000 -0.0000 -0.0472
                                        -0.1227  0.0586 -0.0137
  36. (0.00284) RY*( 2) C  1             s(  0.93%)p95.08( 88.88%)d10.90( 10.19%)
                                         0.0000 -0.0021  0.0921 -0.0293  0.0231
                                        -0.5181 -0.0538  0.0361 -0.7779 -0.1021
                                         0.0000 -0.0000  0.0000  0.0443 -0.1586
                                         0.0000  0.0000  0.0001 -0.0000  0.0839
                                        -0.2555 -0.0356  0.0343
  37. (0.00088) RY*( 3) C  1             s(  0.00%)p 1.00( 50.87%)d 0.97( 49.13%)
                                        -0.0000 -0.0000  0.0000 -0.0000  0.0000
                                         0.0000  0.0000 -0.0000  0.0000  0.0000
                                         0.0194  0.7099 -0.0662  0.0000 -0.0000
                                         0.1390  0.1446  0.5568  0.3755  0.0001
                                         0.0001 -0.0000  0.0000
  38. (0.00049) RY*( 4) C  1             s(  0.00%)p 1.00( 44.01%)d 1.27( 55.99%)
                                        -0.0000  0.0000  0.0000  0.0000 -0.0000
                                        -0.0000  0.0001 -0.0000  0.0000  0.0001
                                         0.0004 -0.6556  0.1018  0.0001  0.0001
                                         0.3905  0.2933  0.4108  0.3906  0.0000
                                         0.0000 -0.0000 -0.0001
  39. (0.00036) RY*( 5) C  1             s( 77.31%)p 0.04(  3.36%)d 0.25( 19.33%)
                                         0.0000 -0.0189  0.8621 -0.1720  0.0265
                                         0.0947  0.0069 -0.0143  0.1008  0.1161
                                        -0.0000 -0.0000  0.0000 -0.0096 -0.0235
                                        -0.0001  0.0001 -0.0000 -0.0001  0.0797
                                        -0.0954 -0.3109  0.2838
  40. (0.00014) RY*( 6) C  1             s( 31.94%)p 0.08(  2.62%)d 2.05( 65.43%)
                                         0.0000  0.0071  0.2290  0.5167  0.0078
                                        -0.1240  0.0210 -0.0100  0.1009  0.0090
                                        -0.0000  0.0001 -0.0001  0.4623  0.2473
                                        -0.0002  0.0001  0.0001 -0.0001 -0.4174
                                        -0.2960 -0.0134 -0.3427
  41. (0.00012) RY*( 7) C  1             s(  3.28%)p 1.88(  6.17%)d27.60( 90.55%)
                                        -0.0000  0.0067  0.1747  0.0472  0.0128
                                        -0.1300 -0.0155  0.0217 -0.1693  0.1236
                                        -0.0000  0.0000 -0.0000  0.2928  0.4329
                                        -0.0001 -0.0000 -0.0002  0.0000  0.3868
                                         0.6663  0.1191 -0.1568
  42. (0.00007) RY*( 8) C  1             s(  2.52%)p17.67( 44.57%)d20.98( 52.91%)
  43. (0.00006) RY*( 9) C  1             s( 10.16%)p 1.30( 13.15%)d 7.55( 76.69%)
  44. (0.00001) RY*(10) C  1             s(  5.75%)p 1.15(  6.59%)d15.24( 87.66%)
  45. (0.00000) RY*(11) C  1             s(  0.00%)p 1.00(  4.41%)d21.70( 95.59%)
  46. (0.00000) RY*(12) C  1             s(  0.00%)p 1.00(  0.96%)d99.99( 99.04%)
  47. (0.00001) RY*(13) C  1             s(  2.40%)p32.60( 78.37%)d 8.00( 19.23%)
  48. (0.00000) RY*(14) C  1             s(  0.00%)p 1.00(  0.02%)d99.99( 99.98%)
  49. (0.00001) RY*(15) C  1             s(  3.88%)p14.31( 55.52%)d10.47( 40.60%)
  50. (0.00000) RY*(16) C  1             s(  0.00%)p 1.00( 99.80%)d 0.00(  0.20%)
  51. (0.00001) RY*(17) C  1             s( 54.24%)p 0.02(  0.91%)d 0.83( 44.85%)
  52. (0.00000) RY*(18) C  1             s(  7.66%)p 0.81(  6.23%)d11.23( 86.11%)
  53. (0.00522) RY*( 1) C  2             s(  0.12%)p99.99( 93.84%)d48.96(  6.04%)
                                         0.0000 -0.0232 -0.0013  0.0263  0.0261
                                         0.8037  0.0121  0.0134  0.5397 -0.0133
                                         0.0000 -0.0000 -0.0000 -0.0756 -0.1835
                                         0.0000 -0.0000 -0.0000  0.0000 -0.0473
                                        -0.1228  0.0588 -0.0139
  54. (0.00283) RY*( 2) C  2             s(  0.94%)p94.23( 88.85%)d10.82( 10.20%)
                                         0.0000 -0.0021  0.0926 -0.0293  0.0231
                                        -0.5179 -0.0538 -0.0361  0.7779  0.1021
                                        -0.0000  0.0001 -0.0000 -0.0443  0.1589
                                         0.0000 -0.0000  0.0000 -0.0000  0.0839
                                        -0.2556 -0.0356  0.0343
  55. (0.00088) RY*( 3) C  2             s(  0.00%)p 1.00( 50.75%)d 0.97( 49.25%)
                                        -0.0000  0.0000 -0.0001  0.0000 -0.0000
                                         0.0000 -0.0000  0.0000 -0.0001 -0.0000
                                         0.0194  0.7091 -0.0662 -0.0000 -0.0000
                                         0.1394  0.1448 -0.5574 -0.3760 -0.0001
                                        -0.0000  0.0000 -0.0001
  56. (0.00049) RY*( 4) C  2             s(  0.00%)p 1.00( 44.13%)d 1.27( 55.87%)
                                        -0.0000 -0.0000  0.0002 -0.0000  0.0000
                                        -0.0001 -0.0000 -0.0000  0.0000 -0.0000
                                         0.0004 -0.6564  0.1018 -0.0001 -0.0000
                                         0.3904  0.2930 -0.4102 -0.3902  0.0001
                                         0.0000 -0.0000  0.0000
  57. (0.00037) RY*( 5) C  2             s( 77.32%)p 0.04(  3.37%)d 0.25( 19.31%)
                                         0.0000 -0.0189  0.8622 -0.1717  0.0265
                                         0.0953  0.0069  0.0143 -0.1011 -0.1161
                                         0.0000  0.0002 -0.0001  0.0096  0.0238
                                        -0.0000 -0.0001  0.0000 -0.0000  0.0794
                                        -0.0956 -0.3106  0.2838
  58. (0.00014) RY*( 6) C  2             s( 31.94%)p 0.08(  2.63%)d 2.05( 65.42%)
                                         0.0000  0.0071  0.2289  0.5167  0.0078
                                        -0.1242  0.0211  0.0100 -0.1010 -0.0096
                                        -0.0000 -0.0000  0.0001 -0.4619 -0.2479
                                         0.0000 -0.0001  0.0001 -0.0000 -0.4168
                                        -0.2961 -0.0131 -0.3432
  59. (0.00012) RY*( 7) C  2             s(  3.29%)p 1.88(  6.18%)d27.48( 90.52%)
                                         0.0000  0.0066  0.1752  0.0470  0.0127
                                        -0.1301 -0.0164 -0.0216  0.1698 -0.1231
                                        -0.0000  0.0001 -0.0000 -0.2916 -0.4334
                                        -0.0002  0.0000 -0.0001  0.0001  0.3858
                                         0.6671  0.1189 -0.1563
  60. (0.00007) RY*( 8) C  2             s(  2.52%)p17.71( 44.59%)d21.01( 52.89%)
  61. (0.00006) RY*( 9) C  2             s( 10.14%)p 1.30( 13.13%)d 7.57( 76.73%)
  62. (0.00001) RY*(10) C  2             s(  5.77%)p 1.14(  6.60%)d15.19( 87.63%)
  63. (0.00000) RY*(11) C  2             s(  0.00%)p 1.00(  4.41%)d21.67( 95.59%)
  64. (0.00000) RY*(12) C  2             s(  0.00%)p 1.00(  0.96%)d99.99( 99.04%)
  65. (0.00001) RY*(13) C  2             s(  2.41%)p32.56( 78.36%)d 7.99( 19.24%)
  66. (0.00000) RY*(14) C  2             s(  0.00%)p 1.00(  0.02%)d99.99( 99.98%)
  67. (0.00001) RY*(15) C  2             s(  3.88%)p14.32( 55.51%)d10.48( 40.61%)
  68. (0.00000) RY*(16) C  2             s(  0.00%)p 1.00( 99.80%)d 0.00(  0.20%)
  69. (0.00001) RY*(17) C  2             s( 54.19%)p 0.02(  0.91%)d 0.83( 44.90%)
  70. (0.00000) RY*(18) C  2             s(  7.69%)p 0.81(  6.23%)d11.19( 86.08%)
  71. (0.00585) RY*( 1) C  3             s(  0.37%)p99.99( 93.22%)d17.13(  6.41%)
                                         0.0000 -0.0165  0.0561 -0.0179  0.0044
                                        -0.2841  0.0001  0.0259  0.9224  0.0033
                                        -0.0000 -0.0000  0.0000  0.0046  0.0518
                                        -0.0000 -0.0000 -0.0000  0.0000  0.1022
                                        -0.2227  0.0357  0.0091
  72. (0.00307) RY*( 2) C  3             s(  0.26%)p99.99( 90.01%)d37.88(  9.73%)
                                        -0.0000  0.0182  0.0470 -0.0051  0.0301
                                        -0.9008 -0.0966 -0.0051 -0.2789  0.0263
                                        -0.0000 -0.0001 -0.0000  0.0342  0.3005
                                         0.0000 -0.0000  0.0000  0.0000 -0.0142
                                         0.0627 -0.0368 -0.0183
  73. (0.00089) RY*( 3) C  3             s(  0.00%)p 1.00( 43.62%)d 1.29( 56.38%)
                                         0.0000 -0.0000  0.0001 -0.0000 -0.0000
                                        -0.0001 -0.0000  0.0000  0.0000 -0.0000
                                         0.0179  0.6566 -0.0693 -0.0000  0.0000
                                        -0.6209  0.4079 -0.0374  0.1022  0.0000
                                        -0.0000 -0.0000  0.0000
  74. (0.00053) RY*( 4) C  3             s(  0.00%)p 1.00( 52.10%)d 0.92( 47.89%)
                                         0.0000 -0.0002  0.0067 -0.0019 -0.0001
                                         0.0010  0.0007  0.0002  0.0000 -0.0000
                                         0.0043 -0.7186  0.0676 -0.0005  0.0014
                                        -0.4906  0.4486  0.1881 -0.0402 -0.0001
                                         0.0007 -0.0018 -0.0025
  75. (0.00052) RY*( 5) C  3             s( 78.92%)p 0.03(  2.10%)d 0.24( 18.99%)
                                         0.0000 -0.0200  0.8549 -0.2407 -0.0113
                                         0.1132  0.0849  0.0251  0.0010 -0.0121
                                        -0.0000  0.0056 -0.0005 -0.0565  0.1750
                                         0.0039 -0.0036 -0.0015  0.0003 -0.0108
                                         0.0836 -0.2293 -0.3104
  76. (0.00016) RY*( 6) C  3             s( 30.14%)p 0.15(  4.47%)d 2.17( 65.39%)
                                        -0.0000  0.0180  0.4339  0.3359  0.0064
[...]
                           0.071%  H 13 s( 49.30%)p 1.03( 50.70%)
   6. (2.00000)  87.1212%  BD ( 2) C  2- C  3       
                           4.052%  C  1 s(  0.00%)p 1.00( 99.40%)d 0.01(  0.60%)
                          44.337%  C  2 s(  0.00%)p 1.00( 99.94%)d 0.00(  0.06%)
                          42.788%  C  3 s(  0.00%)p 1.00( 99.93%)d 0.00(  0.07%)
                           3.218%  C  4 s(  0.00%)p 1.00( 98.92%)d 0.01(  1.08%)
                           2.362%  C  5 s(  0.00%)p 1.00( 99.82%)d 0.00(  0.18%)
                           2.604%  C  6 s(  0.00%)p 1.00( 99.86%)d 0.00(  0.14%)
                           0.048%  C  7 s(  0.00%)p 1.00( 93.59%)d 0.07(  6.41%)
                           0.354%  C  8 s(  0.00%)p 1.00( 99.94%)d 0.00(  0.06%)
                           0.074%  C  9 s(  0.00%)p 1.00( 98.56%)d 0.01(  1.44%)
                           0.143%  C 10 s(  0.00%)p 1.00( 98.97%)d 0.01(  1.03%)
   7. (2.00000)  99.0772%  BD ( 1) C  2- H 12       
                           0.183%  C  1 s(  1.71%)p55.58( 95.09%)d 1.87(  3.20%)
                          61.412%  C  2 s( 26.98%)p 2.70( 72.95%)d 0.00(  0.06%)
                           0.243%  C  3 s(  0.71%)p99.99( 96.34%)d 4.18(  2.95%)
                           0.173%  C  4 s( 34.39%)p 1.84( 63.39%)d 0.06(  2.22%)
                           0.021%  C  5 s( 30.35%)p 2.19( 66.58%)d 0.10(  3.07%)
                           0.141%  C  6 s( 37.41%)p 1.62( 60.54%)d 0.05(  2.05%)
                           0.045%  H 11 s( 95.83%)p 0.04(  4.17%)
                          37.703%  H 12 s( 99.84%)p 0.00(  0.16%)
                           0.051%  H 13 s( 96.31%)p 0.04(  3.69%)
                           0.011%  H 14 s( 96.75%)p 0.03(  3.25%)
   8. (2.00000)  98.6387%  BD ( 1) C  3- C  4       
                           0.289%  C  2 s(  1.16%)p82.11( 94.92%)d 3.40(  3.93%)
                          47.825%  C  3 s( 30.56%)p 2.27( 69.26%)d 0.01(  0.18%)
                          51.009%  C  4 s( 29.11%)p 2.43( 70.79%)d 0.00(  0.10%)
                           0.223%  C  5 s(  0.47%)p99.99( 95.27%)d 9.07(  4.26%)
                           0.011%  C  6 s( 25.76%)p 2.64( 68.12%)d 0.24(  6.12%)
                           0.108%  C  7 s( 33.97%)p 1.91( 64.92%)d 0.03(  1.10%)
                           0.011%  C  8 s( 52.11%)p 0.90( 46.92%)d 0.02(  0.97%)
                           0.071%  C  9 s( 32.13%)p 2.05( 66.02%)d 0.06(  1.84%)
                           0.192%  C 10 s(  1.94%)p48.31( 93.89%)d 2.14(  4.17%)
                           0.153%  H 12 s( 95.55%)p 0.05(  4.45%)
                           0.059%  H 13 s( 31.63%)p 2.16( 68.37%)
                           0.028%  H 18 s( 95.61%)p 0.05(  4.39%)
   9. (2.00000)  99.0220%  BD ( 1) C  3- H 13       
                           0.173%  C  1 s( 40.50%)p 1.43( 57.86%)d 0.04(  1.65%)
                           0.241%  C  2 s(  1.02%)p94.45( 96.22%)d 2.71(  2.76%)
                          61.302%  C  3 s( 26.75%)p 2.74( 73.18%)d 0.00(  0.07%)
                           0.209%  C  4 s(  2.89%)p32.24( 93.04%)d 1.41(  4.07%)
                           0.163%  C  5 s( 30.44%)p 2.23( 67.96%)d 0.05(  1.60%)
                           0.018%  C  6 s( 53.97%)p 0.81( 43.88%)d 0.04(  2.15%)
                           0.033%  C 10 s( 82.77%)p 0.16( 13.14%)d 0.05(  4.09%)
                           0.056%  H 12 s( 97.45%)p 0.03(  2.55%)
                          37.762%  H 13 s( 99.82%)p 0.00(  0.18%)
                           0.011%  H 18 s( 78.72%)p 0.27( 21.28%)
  10. (2.00000)  98.1084%  BD ( 1) C  4- C  5       
                           0.263%  C  3 s(  2.21%)p42.59( 94.13%)d 1.66(  3.66%)
                          49.187%  C  4 s( 27.82%)p 2.59( 72.07%)d 0.00(  0.11%)
                          49.191%  C  5 s( 27.84%)p 2.59( 72.05%)d 0.00(  0.11%)
                           0.263%  C  6 s(  2.22%)p42.33( 94.12%)d 1.64(  3.66%)
                           0.263%  C  7 s(  2.22%)p42.33( 94.12%)d 1.64(  3.66%)
                           0.263%  C 10 s(  2.21%)p42.59( 94.13%)d 1.66(  3.66%)
                           0.134%  H 13 s( 96.47%)p 0.04(  3.53%)
                           0.134%  H 14 s( 96.48%)p 0.04(  3.52%)
                           0.134%  H 15 s( 96.48%)p 0.04(  3.52%)
                           0.134%  H 18 s( 96.47%)p 0.04(  3.53%)
  11. (2.00000)  77.5234%  BD ( 2) C  4- C  5       
                           1.377%  C  1 s(  0.00%)p 1.00( 99.80%)d 0.00(  0.20%)
                           1.383%  C  2 s(  0.00%)p 1.00( 99.80%)d 0.00(  0.20%)
                           4.226%  C  3 s(  0.00%)p 1.00( 99.52%)d 0.00(  0.48%)
                          38.760%  C  4 s(  0.00%)p 1.00( 99.97%)d 0.00(  0.03%)
                          38.764%  C  5 s(  0.00%)p 1.00( 99.97%)d 0.00(  0.03%)
                           4.221%  C  6 s(  0.00%)p 1.00( 99.52%)d 0.00(  0.48%)
                           4.241%  C  7 s(  0.00%)p 1.00( 99.52%)d 0.00(  0.48%)
                           1.384%  C  8 s(  0.00%)p 1.00( 99.80%)d 0.00(  0.20%)
                           1.390%  C  9 s(  0.00%)p 1.00( 99.80%)d 0.00(  0.20%)
                           4.247%  C 10 s(  0.00%)p 1.00( 99.52%)d 0.00(  0.48%)
  12. (2.00000)  98.6387%  BD ( 1) C  4- C 10       
                           0.011%  C  1 s( 52.11%)p 0.90( 46.92%)d 0.02(  0.97%)
                           0.071%  C  2 s( 32.13%)p 2.05( 66.02%)d 0.06(  1.84%)
                           0.192%  C  3 s(  1.94%)p48.28( 93.89%)d 2.14(  4.17%)
                          51.009%  C  4 s( 29.11%)p 2.43( 70.79%)d 0.00(  0.10%)
                           0.223%  C  5 s(  0.47%)p99.99( 95.27%)d 9.07(  4.26%)
                           0.108%  C  6 s( 33.97%)p 1.91( 64.92%)d 0.03(  1.10%)
                           0.011%  C  7 s( 25.76%)p 2.64( 68.12%)d 0.24(  6.12%)
                           0.289%  C  9 s(  1.16%)p82.10( 94.92%)d 3.40(  3.93%)
                          47.825%  C 10 s( 30.56%)p 2.27( 69.26%)d 0.01(  0.18%)
                           0.028%  H 13 s( 95.61%)p 0.05(  4.39%)
                           0.153%  H 17 s( 95.55%)p 0.05(  4.45%)
                           0.059%  H 18 s( 31.64%)p 2.16( 68.36%)
  13. (2.00000)  98.6391%  BD ( 1) C  5- C  6       
                           0.289%  C  1 s(  1.15%)p82.32( 94.92%)d 3.40(  3.93%)
                           0.011%  C  3 s( 25.76%)p 2.64( 68.11%)d 0.24(  6.14%)
                           0.223%  C  4 s(  0.47%)p99.99( 95.26%)d 8.99(  4.27%)
                          51.008%  C  5 s( 29.10%)p 2.43( 70.80%)d 0.00(  0.10%)
                          47.826%  C  6 s( 30.57%)p 2.27( 69.25%)d 0.01(  0.18%)
                           0.192%  C  7 s(  1.92%)p48.86( 93.91%)d 2.17(  4.17%)
                           0.071%  C  8 s( 32.13%)p 2.06( 66.03%)d 0.06(  1.84%)
                           0.011%  C  9 s( 52.09%)p 0.90( 46.93%)d 0.02(  0.98%)
                           0.108%  C 10 s( 33.95%)p 1.91( 64.94%)d 0.03(  1.11%)
                           0.152%  H 11 s( 95.55%)p 0.05(  4.45%)
                           0.059%  H 14 s( 31.68%)p 2.16( 68.32%)
                           0.028%  H 15 s( 95.62%)p 0.05(  4.38%)
  14. (2.00000)  98.6390%  BD ( 1) C  5- C  7       
                           0.071%  C  1 s( 32.13%)p 2.06( 66.03%)d 0.06(  1.84%)
                           0.011%  C  2 s( 52.09%)p 0.90( 46.93%)d 0.02(  0.98%)
                           0.108%  C  3 s( 33.94%)p 1.91( 64.95%)d 0.03(  1.11%)
                           0.223%  C  4 s(  0.47%)p99.99( 95.26%)d 8.99(  4.27%)
                          51.008%  C  5 s( 29.10%)p 2.43( 70.80%)d 0.00(  0.10%)
                           0.192%  C  6 s(  1.92%)p48.89( 93.91%)d 2.17(  4.17%)
                          47.826%  C  7 s( 30.57%)p 2.27( 69.26%)d 0.01(  0.18%)
                           0.289%  C  8 s(  1.15%)p82.33( 94.92%)d 3.41(  3.93%)
                           0.011%  C 10 s( 25.77%)p 2.64( 68.10%)d 0.24(  6.14%)
                           0.028%  H 14 s( 95.62%)p 0.05(  4.38%)
                           0.059%  H 15 s( 31.68%)p 2.16( 68.32%)
                           0.152%  H 16 s( 95.55%)p 0.05(  4.45%)
  15. (2.00000)  99.0227%  BD ( 1) C  6- H 14       
                           0.241%  C  1 s(  1.02%)p93.95( 96.21%)d 2.70(  2.76%)
                           0.173%  C  2 s( 40.49%)p 1.43( 57.86%)d 0.04(  1.65%)
                           0.018%  C  3 s( 53.96%)p 0.81( 43.88%)d 0.04(  2.16%)
                           0.163%  C  4 s( 30.41%)p 2.24( 67.99%)d 0.05(  1.60%)
                           0.209%  C  5 s(  2.88%)p32.28( 93.04%)d 1.41(  4.08%)
                          61.303%  C  6 s( 26.75%)p 2.74( 73.18%)d 0.00(  0.07%)
                           0.033%  C  7 s( 82.82%)p 0.16( 13.09%)d 0.05(  4.08%)
                           0.056%  H 11 s( 97.45%)p 0.03(  2.55%)
                          37.762%  H 14 s( 99.82%)p 0.00(  0.18%)
                           0.011%  H 15 s( 78.64%)p 0.27( 21.36%)
  16. (2.00000)  98.8958%  BD ( 1) C  7- C  8       
                           0.273%  C  5 s(  0.10%)p99.99( 95.32%)d44.78(  4.57%)
                           0.116%  C  6 s( 29.63%)p 2.33( 69.06%)d 0.04(  1.31%)
                          49.785%  C  7 s( 32.66%)p 2.06( 67.20%)d 0.00(  0.15%)
                          49.275%  C  8 s( 32.49%)p 2.07( 67.33%)d 0.01(  0.18%)
                           0.247%  C  9 s(  0.17%)p99.99( 95.61%)d24.31(  4.22%)
                           0.071%  H 15 s( 49.24%)p 1.03( 50.76%)
                           0.079%  H 16 s( 39.05%)p 1.56( 60.95%)
                           0.127%  H 17 s( 95.55%)p 0.05(  4.45%)
  17. (2.00000)  87.1126%  BD ( 2) C  7- C  8       
                           0.073%  C  1 s(  0.00%)p 1.00( 98.57%)d 0.01(  1.43%)
                           0.353%  C  2 s(  0.00%)p 1.00( 99.94%)d 0.00(  0.06%)
                           0.047%  C  3 s(  0.00%)p 1.00( 93.47%)d 0.07(  6.53%)
                           2.366%  C  4 s(  0.00%)p 1.00( 99.82%)d 0.00(  0.18%)
                           3.221%  C  5 s(  0.00%)p 1.00( 98.93%)d 0.01(  1.07%)
                           0.141%  C  6 s(  0.00%)p 1.00( 98.96%)d 0.01(  1.04%)
                          42.818%  C  7 s(  0.00%)p 1.00( 99.93%)d 0.00(  0.07%)
                          44.298%  C  8 s(  0.00%)p 1.00( 99.94%)d 0.00(  0.06%)
                           4.015%  C  9 s(  0.00%)p 1.00( 99.40%)d 0.01(  0.60%)
                           2.647%  C 10 s(  0.00%)p 1.00( 99.87%)d 0.00(  0.13%)
  18. (2.00000)  99.0228%  BD ( 1) C  7- H 15       
                           0.163%  C  4 s( 30.41%)p 2.24( 67.99%)d 0.05(  1.60%)
                           0.209%  C  5 s(  2.88%)p32.27( 93.04%)d 1.41(  4.08%)
                           0.033%  C  6 s( 82.83%)p 0.16( 13.09%)d 0.05(  4.08%)
                          61.303%  C  7 s( 26.75%)p 2.74( 73.18%)d 0.00(  0.07%)
                           0.241%  C  8 s(  1.02%)p93.96( 96.21%)d 2.70(  2.76%)
                           0.173%  C  9 s( 40.49%)p 1.43( 57.86%)d 0.04(  1.65%)
                           0.018%  C 10 s( 53.94%)p 0.81( 43.90%)d 0.04(  2.15%)
                           0.011%  H 14 s( 78.62%)p 0.27( 21.38%)
                          37.762%  H 15 s( 99.82%)p 0.00(  0.18%)
                           0.056%  H 16 s( 97.45%)p 0.03(  2.55%)
  19. (2.00000)  98.7957%  BD ( 1) C  8- C  9       
                           0.012%  C  4 s( 38.01%)p 1.42( 54.00%)d 0.21(  7.99%)
                           0.012%  C  5 s( 37.99%)p 1.42( 54.01%)d 0.21(  8.01%)
                           0.279%  C  7 s(  0.70%)p99.99( 95.11%)d 6.03(  4.20%)
                          49.466%  C  8 s( 31.03%)p 2.22( 68.81%)d 0.01(  0.17%)
                          49.468%  C  9 s( 31.03%)p 2.22( 68.81%)d 0.01(  0.17%)
                           0.279%  C 10 s(  0.70%)p99.99( 95.10%)d 5.97(  4.20%)
                           0.168%  H 15 s( 97.06%)p 0.03(  2.94%)
                           0.070%  H 16 s( 30.33%)p 2.30( 69.67%)
                           0.070%  H 17 s( 30.30%)p 2.30( 69.70%)
                           0.168%  H 18 s( 97.07%)p 0.03(  2.93%)
  20. (2.00000)  99.0780%  BD ( 1) C  8- H 16       
                           0.021%  C  4 s( 30.31%)p 2.20( 66.62%)d 0.10(  3.07%)
                           0.173%  C  5 s( 34.37%)p 1.84( 63.41%)d 0.06(  2.22%)
                           0.243%  C  7 s(  0.71%)p99.99( 96.34%)d 4.15(  2.95%)
                          61.413%  C  8 s( 26.99%)p 2.70( 72.94%)d 0.00(  0.06%)
                           0.182%  C  9 s(  1.75%)p54.41( 95.04%)d 1.84(  3.21%)
                           0.141%  C 10 s( 37.43%)p 1.62( 60.52%)d 0.05(  2.05%)
                           0.051%  H 15 s( 96.30%)p 0.04(  3.70%)
                          37.704%  H 16 s( 99.84%)p 0.00(  0.16%)
                           0.046%  H 17 s( 95.86%)p 0.04(  4.14%)
                           0.011%  H 18 s( 96.75%)p 0.03(  3.25%)
  21. (2.00000)  98.8956%  BD ( 1) C  9- C 10       
                           0.116%  C  3 s( 29.79%)p 2.31( 68.91%)d 0.04(  1.31%)
                           0.273%  C  4 s(  0.10%)p99.99( 95.33%)d44.89(  4.57%)
                           0.247%  C  8 s(  0.18%)p99.99( 95.61%)d23.85(  4.21%)
                          49.274%  C  9 s( 32.50%)p 2.07( 67.32%)d 0.01(  0.18%)
                          49.785%  C 10 s( 32.67%)p 2.06( 67.19%)d 0.00(  0.15%)
                           0.127%  H 16 s( 95.55%)p 0.05(  4.45%)
                           0.079%  H 17 s( 39.08%)p 1.56( 60.92%)
                           0.071%  H 18 s( 49.30%)p 1.03( 50.70%)
  22. (1.99999)  87.1293%  BD ( 2) C  9- C 10       
                           0.347%  C  1 s(  0.00%)p 1.00( 99.94%)d 0.00(  0.06%)
                           0.071%  C  2 s(  0.00%)p 1.00( 98.53%)d 0.01(  1.47%)
                           0.136%  C  3 s(  0.00%)p 1.00( 98.93%)d 0.01(  1.07%)
                           3.223%  C  4 s(  0.00%)p 1.00( 98.93%)d 0.01(  1.07%)
                           2.370%  C  5 s(  0.00%)p 1.00( 99.82%)d 0.00(  0.18%)
                           0.050%  C  6 s(  0.00%)p 1.00( 93.86%)d 0.07(  6.14%)
                           2.641%  C  7 s(  0.00%)p 1.00( 99.87%)d 0.00(  0.13%)
                           4.011%  C  8 s(  0.00%)p 1.00( 99.40%)d 0.01(  0.60%)
                          44.300%  C  9 s(  0.00%)p 1.00( 99.94%)d 0.00(  0.06%)
                          42.833%  C 10 s(  0.00%)p 1.00( 99.93%)d 0.00(  0.07%)
  23. (2.00000)  99.0773%  BD ( 1) C  9- H 17       
                           0.173%  C  4 s( 34.39%)p 1.84( 63.39%)d 0.06(  2.22%)
                           0.021%  C  5 s( 30.34%)p 2.19( 66.59%)d 0.10(  3.07%)
                           0.141%  C  7 s( 37.42%)p 1.62( 60.53%)d 0.05(  2.05%)
                           0.182%  C  8 s(  1.75%)p54.31( 95.04%)d 1.83(  3.20%)
                          61.412%  C  9 s( 26.98%)p 2.70( 72.95%)d 0.00(  0.06%)
                           0.243%  C 10 s(  0.71%)p99.99( 96.34%)d 4.17(  2.95%)
                           0.011%  H 15 s( 96.75%)p 0.03(  3.25%)
                           0.046%  H 16 s( 95.86%)p 0.04(  4.14%)
                          37.704%  H 17 s( 99.84%)p 0.00(  0.16%)
                           0.051%  H 18 s( 96.30%)p 0.04(  3.70%)
  24. (2.00000)  99.0220%  BD ( 1) C 10- H 18       
                           0.033%  C  3 s( 82.76%)p 0.16( 13.14%)d 0.05(  4.09%)
                           0.209%  C  4 s(  2.89%)p32.25( 93.04%)d 1.41(  4.07%)
                           0.163%  C  5 s( 30.44%)p 2.23( 67.96%)d 0.05(  1.60%)
                           0.018%  C  7 s( 53.95%)p 0.81( 43.90%)d 0.04(  2.15%)
                           0.173%  C  8 s( 40.50%)p 1.43( 57.86%)d 0.04(  1.65%)
                           0.241%  C  9 s(  1.02%)p94.42( 96.22%)d 2.71(  2.76%)
                          61.302%  C 10 s( 26.75%)p 2.74( 73.19%)d 0.00(  0.07%)
                           0.011%  H 13 s( 78.73%)p 0.27( 21.27%)
                           0.056%  H 17 s( 97.45%)p 0.03(  2.55%)
                          37.762%  H 18 s( 99.82%)p 0.00(  0.18%)
  25. (2.00000)  99.9498%  CR ( 1) C  1             
                          99.954%  C  1 s(100.00%)p 0.00(  0.00%)d 0.00(  0.00%)
                           0.016%  C  2 s( 18.51%)p 4.11( 76.13%)d 0.29(  5.36%)
                           0.019%  C  6 s( 18.00%)p 4.32( 77.75%)d 0.24(  4.25%)
  26. (2.00000)  99.9498%  CR ( 1) C  2             
                           0.016%  C  1 s( 18.52%)p 4.11( 76.13%)d 0.29(  5.36%)
                          99.954%  C  2 s(100.00%)p 0.00(  0.00%)d 0.00(  0.00%)
                           0.019%  C  3 s( 18.01%)p 4.32( 77.74%)d 0.24(  4.25%)
  27. (2.00000)  99.9470%  CR ( 1) C  3             
                           0.018%  C  2 s( 16.81%)p 4.68( 78.62%)d 0.27(  4.57%)
                          99.952%  C  3 s( 99.99%)p 0.00(  0.00%)d 0.00(  0.00%)
                           0.019%  C  4 s( 16.55%)p 4.80( 79.43%)d 0.24(  4.02%)
  28. (2.00000)  99.9437%  CR ( 1) C  4             
                           0.014%  C  3 s( 17.67%)p 4.34( 76.63%)d 0.32(  5.71%)
                          99.947%  C  4 s(100.00%)p 0.00(  0.00%)d 0.00(  0.00%)
                           0.018%  C  5 s( 16.88%)p 4.70( 79.38%)d 0.22(  3.74%)
                           0.014%  C 10 s( 17.67%)p 4.34( 76.63%)d 0.32(  5.71%)
  29. (2.00000)  99.9437%  CR ( 1) C  5             
                           0.018%  C  4 s( 16.88%)p 4.70( 79.38%)d 0.22(  3.74%)
                          99.947%  C  5 s(100.00%)p 0.00(  0.00%)d 0.00(  0.00%)
                           0.014%  C  6 s( 17.67%)p 4.34( 76.63%)d 0.32(  5.71%)
                           0.014%  C  7 s( 17.67%)p 4.34( 76.63%)d 0.32(  5.71%)
  30. (2.00000)  99.9470%  CR ( 1) C  6             
                           0.018%  C  1 s( 16.80%)p 4.68( 78.63%)d 0.27(  4.57%)
                           0.019%  C  5 s( 16.55%)p 4.80( 79.42%)d 0.24(  4.02%)
                          99.952%  C  6 s( 99.99%)p 0.00(  0.00%)d 0.00(  0.00%)
  31. (2.00000)  99.9470%  CR ( 1) C  7             
                           0.019%  C  5 s( 16.55%)p 4.80( 79.42%)d 0.24(  4.02%)
                          99.952%  C  7 s( 99.99%)p 0.00(  0.00%)d 0.00(  0.00%)
                           0.018%  C  8 s( 16.80%)p 4.68( 78.63%)d 0.27(  4.57%)
  32. (2.00000)  99.9498%  CR ( 1) C  8             
                           0.019%  C  7 s( 18.00%)p 4.32( 77.75%)d 0.24(  4.25%)
                          99.954%  C  8 s(100.00%)p 0.00(  0.00%)d 0.00(  0.00%)
                           0.016%  C  9 s( 18.51%)p 4.11( 76.13%)d 0.29(  5.36%)
  33. (2.00000)  99.9498%  CR ( 1) C  9             
                           0.016%  C  8 s( 18.52%)p 4.11( 76.13%)d 0.29(  5.36%)
                          99.954%  C  9 s(100.00%)p 0.00(  0.00%)d 0.00(  0.00%)
                           0.019%  C 10 s( 18.01%)p 4.32( 77.74%)d 0.24(  4.25%)
  34. (2.00000)  99.9470%  CR ( 1) C 10             
                           0.019%  C  4 s( 16.55%)p 4.80( 79.43%)d 0.24(  4.02%)
                           0.018%  C  9 s( 16.81%)p 4.68( 78.62%)d 0.27(  4.57%)
                          99.952%  C 10 s( 99.99%)p 0.00(  0.00%)d 0.00(  0.00%)

 *******************************************************************************
Grid information in Angstroms:
 x:        101  min =  -6.000000 max =   6.000000
 y:        101  min =  -6.000000 max =   6.000000
 z:         68  min =  -4.000000 max =   4.000000
 Plotting NBOs for the following states:  0
 Range of NBOs for each state:  11
 Created directory /scratch/483108/qchem2571246/plots
 Total job time:  60.81s(wall), 471.38s(cpu) 
 Wed Jun 17 18:31:58 2026

        *************************************************************
        *                                                           *
        *  Thank you very much for using Q-Chem.  Have a nice day.  *
        *                                                           *
        *************************************************************


