 Entering Gaussian System, Link 0=g09
 Initial command:
 /local/gaussian-09.D01/g09/l1.exe "/scratch/481094/rev_BN_DEWAR/Gau-3615673.inp" -scrdir="/scratch/481094/rev_BN_DEWAR/"
 Default CPUs for threads: 0-39
 Default is to use a total of  40 processors:
                               40 via shared-memory
                                1 via Linda
 Entering Link 1 = /local/gaussian-09.D01/g09/l1.exe PID=   3615675.
  
 Copyright (c) 1988,1990,1992,1993,1995,1998,2003,2009,2013,
            Gaussian, Inc.  All Rights Reserved.
  
 This is part of the Gaussian(R) 09 program.  It is based on
 the Gaussian(R) 03 system (copyright 2003, Gaussian, Inc.),
 the Gaussian(R) 98 system (copyright 1998, Gaussian, Inc.),
 the Gaussian(R) 94 system (copyright 1995, Gaussian, Inc.),
 the Gaussian 92(TM) system (copyright 1992, Gaussian, Inc.),
 the Gaussian 90(TM) system (copyright 1990, Gaussian, Inc.),
 the Gaussian 88(TM) system (copyright 1988, Gaussian, Inc.),
 the Gaussian 86(TM) system (copyright 1986, Carnegie Mellon
 University), and the Gaussian 82(TM) system (copyright 1983,
 Carnegie Mellon University). Gaussian is a federally registered
 trademark of Gaussian, Inc.
  
 This software contains proprietary and confidential information,
 including trade secrets, belonging to Gaussian, Inc.
  
 This software is provided under written license and may be
 used, copied, transmitted, or stored only in accord with that
 written license.
  
 The following legend is applicable only to US Government
 contracts under FAR:
  
                    RESTRICTED RIGHTS LEGEND
  
 Use, reproduction and disclosure by the US Government is
 subject to restrictions as set forth in subparagraphs (a)
 and (c) of the Commercial Computer Software - Restricted
 Rights clause in FAR 52.227-19.
  
 Gaussian, Inc.
 340 Quinnipiac St., Bldg. 40, Wallingford CT 06492
  
  
 ---------------------------------------------------------------
 Warning -- This program may not be used in any manner that
 competes with the business of Gaussian, Inc. or will provide
 assistance to any competitor of Gaussian, Inc.  The licensee
 of this program is prohibited from giving any competitor of
 Gaussian, Inc. access to this program.  By using this program,
 the user acknowledges that Gaussian, Inc. is engaged in the
 business of creating and licensing software in the field of
 computational chemistry and represents and warrants to the
 licensee that it is not a competitor of Gaussian, Inc. and that
 it will not use this program in any manner prohibited above.
 ---------------------------------------------------------------
  

 Cite this work as:
 Gaussian 09, Revision D.01,
 M. J. Frisch, G. W. Trucks, H. B. Schlegel, G. E. Scuseria, 
 M. A. Robb, J. R. Cheeseman, G. Scalmani, V. Barone, B. Mennucci, 
 G. A. Petersson, H. Nakatsuji, M. Caricato, X. Li, H. P. Hratchian, 
 A. F. Izmaylov, J. Bloino, G. Zheng, J. L. Sonnenberg, M. Hada, 
 M. Ehara, K. Toyota, R. Fukuda, J. Hasegawa, M. Ishida, T. Nakajima, 
 Y. Honda, O. Kitao, H. Nakai, T. Vreven, J. A. Montgomery, Jr., 
 J. E. Peralta, F. Ogliaro, M. Bearpark, J. J. Heyd, E. Brothers, 
 K. N. Kudin, V. N. Staroverov, T. Keith, R. Kobayashi, J. Normand, 
 K. Raghavachari, A. Rendell, J. C. Burant, S. S. Iyengar, J. Tomasi, 
 M. Cossi, N. Rega, J. M. Millam, M. Klene, J. E. Knox, J. B. Cross, 
 V. Bakken, C. Adamo, J. Jaramillo, R. Gomperts, R. E. Stratmann, 
 O. Yazyev, A. J. Austin, R. Cammi, C. Pomelli, J. W. Ochterski, 
 R. L. Martin, K. Morokuma, V. G. Zakrzewski, G. A. Voth, 
 P. Salvador, J. J. Dannenberg, S. Dapprich, A. D. Daniels, 
 O. Farkas, J. B. Foresman, J. V. Ortiz, J. Cioslowski, 
 and D. J. Fox, Gaussian, Inc., Wallingford CT, 2013.
 
 ******************************************
 Gaussian 09:  ES64L-G09RevD.01 24-Apr-2013
                11-Jun-2026 
 ******************************************
 %chk=acid.chk
 %mem=90GB
 %nprocshared=40
 Will use up to   40 processors via shared memory.
 ----------------------------------------------------------------------
 #p wb97xD/aug-cc-pvdz NMR=CSGT IOp(10/93=1) SCF=(Tight,MaxCycle=512) I
 nt=UltraFine
 ----------------------------------------------------------------------
 1/38=1/1;
 2/12=2,17=6,18=5,40=1/2;
 3/5=16,7=10,11=2,16=1,25=1,30=1,74=-58,75=-5/1,2,8,3;
 4//1;
 5/5=2,7=512,32=2,38=5/2;
 8/6=1,10=90,11=11/1;
 10/13=100,45=4,93=1/2;
 6/7=2,8=2,9=2,10=2,28=1/1;
 99/9=1/99;
 Leave Link    1 at Thu Jun 11 17:48:45 2026, MaxMem= 12079595520 cpu:         2.2
 (Enter /local/gaussian-09.D01/g09/l101.exe)
 ----
 TEST
 ----
 Symbolic Z-matrix:
 Charge =  0 Multiplicity = 1
 C                    -2.45429   0.62938  -0.25486 
 C                    -2.33596  -0.79404  -0.21823 
 C                    -1.13168  -1.39413   0.06613 
 N                    -0.08965  -0.57697   0.31126 
 B                    -0.08513   0.85135   0.26981 
 C                    -1.40711   1.5065   -0.0289 
 C                     1.5073    0.87439   0.57692 
 C                     2.41552   0.62096  -0.61879 
 C                     2.26253  -0.71282  -0.62202 
 C                     1.35217  -0.70018   0.5959 
 H                    -3.44806   1.02674  -0.4809 
 H                    -3.2086   -1.41459  -0.41288 
 H                    -0.9926   -2.47459   0.11246 
 H                    -1.614     2.57601  -0.08362 
 H                     1.92559   1.39488   1.44504 
 H                     2.9506    1.30685  -1.27563 
 H                     2.58727  -1.51202  -1.28606 
 H                     1.60208  -1.30161   1.47686 
 
 NAtoms=     18 NQM=       18 NQMF=       0 NMMI=      0 NMMIF=      0
                NMic=       0 NMicF=      0.
                    Isotopes and Nuclear Properties:
 (Nuclear quadrupole moments (NQMom) in fm**2, nuclear magnetic moments (NMagM)
  in nuclear magnetons)

  Atom         1           2           3           4           5           6           7           8           9          10
 IAtWgt=          12          12          12          14          11          12          12          12          12          12
 AtmWgt=  12.0000000  12.0000000  12.0000000  14.0030740  11.0093053  12.0000000  12.0000000  12.0000000  12.0000000  12.0000000
 NucSpn=           0           0           0           2           3           0           0           0           0           0
 AtZEff=   0.0000000   0.0000000   0.0000000   0.0000000   0.0000000   0.0000000   0.0000000   0.0000000   0.0000000   0.0000000
 NQMom=    0.0000000   0.0000000   0.0000000   2.0440000   4.0590000   0.0000000   0.0000000   0.0000000   0.0000000   0.0000000
 NMagM=    0.0000000   0.0000000   0.0000000   0.4037610   2.6886370   0.0000000   0.0000000   0.0000000   0.0000000   0.0000000
 AtZNuc=   6.0000000   6.0000000   6.0000000   7.0000000   5.0000000   6.0000000   6.0000000   6.0000000   6.0000000   6.0000000

  Atom        11          12          13          14          15          16          17          18
 IAtWgt=           1           1           1           1           1           1           1           1
 AtmWgt=   1.0078250   1.0078250   1.0078250   1.0078250   1.0078250   1.0078250   1.0078250   1.0078250
 NucSpn=           1           1           1           1           1           1           1           1
 AtZEff=   0.0000000   0.0000000   0.0000000   0.0000000   0.0000000   0.0000000   0.0000000   0.0000000
 NQMom=    0.0000000   0.0000000   0.0000000   0.0000000   0.0000000   0.0000000   0.0000000   0.0000000
 NMagM=    2.7928460   2.7928460   2.7928460   2.7928460   2.7928460   2.7928460   2.7928460   2.7928460
 AtZNuc=   1.0000000   1.0000000   1.0000000   1.0000000   1.0000000   1.0000000   1.0000000   1.0000000
 Leave Link  101 at Thu Jun 11 17:48:45 2026, MaxMem= 12079595520 cpu:         2.8
 (Enter /local/gaussian-09.D01/g09/l202.exe)
                          Input orientation:                          
 ---------------------------------------------------------------------
 Center     Atomic      Atomic             Coordinates (Angstroms)
 Number     Number       Type             X           Y           Z
 ---------------------------------------------------------------------
      1          6           0       -2.454287    0.629383   -0.254863
      2          6           0       -2.335956   -0.794037   -0.218233
      3          6           0       -1.131676   -1.394128    0.066127
      4          7           0       -0.089646   -0.576972    0.311260
      5          5           0       -0.085129    0.851346    0.269807
      6          6           0       -1.407109    1.506499   -0.028895
      7          6           0        1.507297    0.874389    0.576920
      8          6           0        2.415517    0.620960   -0.618786
      9          6           0        2.262525   -0.712821   -0.622022
     10          6           0        1.352173   -0.700178    0.595896
     11          1           0       -3.448060    1.026744   -0.480897
     12          1           0       -3.208605   -1.414589   -0.412882
     13          1           0       -0.992598   -2.474593    0.112460
     14          1           0       -1.614002    2.576008   -0.083617
     15          1           0        1.925585    1.394883    1.445040
     16          1           0        2.950601    1.306854   -1.275634
     17          1           0        2.587274   -1.512019   -1.286058
     18          1           0        1.602077   -1.301607    1.476861
 ---------------------------------------------------------------------
                    Distance matrix (angstroms):
                    1          2          3          4          5
     1  C    0.000000
     2  C    1.428800   0.000000
     3  C    2.438633   1.375231   0.000000
     4  N    2.714280   2.318057   1.346722   0.000000
     5  B    2.436690   2.830493   2.485739   1.428927   0.000000
     6  C    1.384549   2.488186   2.915224   2.488426   1.505350
     7  C    4.055372   4.264564   3.517280   2.174224   1.621934
     8  C    4.883390   4.973847   4.136697   2.928458   2.663814
     9  C    4.917787   4.616890   3.529636   2.534202   2.958624
    10  C    4.120760   3.778083   2.632817   1.474801   2.139953
    11  H    1.093879   2.149654   3.394921   3.805044   3.450163
    12  H    2.184442   1.088342   2.131549   3.309666   3.918753
    13  H    3.450526   2.176749   1.090364   2.110879   3.451105
    14  H    2.127147   3.449136   4.002130   3.524326   2.331699
    15  H    4.760141   5.071349   4.361975   3.038886   2.391563
    16  H    5.541999   5.786149   5.075491   3.912817   3.436791
    17  H    5.573715   5.088609   3.958900   3.254480   3.892036
    18  H    4.814736   4.317299   3.077684   2.178451   2.989791
                    6          7          8          9         10
     6  C    0.000000
     7  C    3.043080   0.000000
     8  C    3.967949   1.522762   0.000000
     9  C    4.329364   2.127690   1.342531   0.000000
    10  C    3.587955   1.582304   2.086039   1.520600   0.000000
    11  H    2.144750   5.069295   5.879218   5.971330   5.213826
    12  H    3.453345   5.334685   5.984698   5.519917   4.725327
    13  H    4.005109   4.204864   4.661804   3.773477   2.979968
    14  H    1.090710   3.615843   4.510614   5.112117   4.471390
    15  H    3.645791   1.095222   2.257957   2.971311   2.332194
    16  H    4.536943   2.387909   1.090053   2.231534   3.175811
    17  H    5.162074   3.214340   2.241507   1.088634   2.392971
    18  H    4.382689   2.356658   2.957987   2.277756   1.095568
                   11         12         13         14         15
    11  H    0.000000
    12  H    2.453991   0.000000
    13  H    4.317491   2.512027   0.000000
    14  H    2.433479   4.309993   5.092461   0.000000
    15  H    5.720212   6.140433   5.026371   4.032434   0.000000
    16  H    6.453908   6.788697   5.636929   4.885413   2.908689
    17  H    6.596882   5.862094   3.962056   5.984024   4.043119
    18  H    5.895585   5.169773   3.157503   5.273913   2.716013
                   16         17         18
    16  H    0.000000
    17  H    2.842210   0.000000
    18  H    4.024775   2.940852   0.000000
 Stoichiometry    C8H8BN
 Framework group  C1[X(C8H8BN)]
 Deg. of freedom    48
 Full point group                 C1      NOp   1
 Largest Abelian subgroup         C1      NOp   1
 Largest concise Abelian subgroup C1      NOp   1
                         Standard orientation:                         
 ---------------------------------------------------------------------
 Center     Atomic      Atomic             Coordinates (Angstroms)
 Number     Number       Type             X           Y           Z
 ---------------------------------------------------------------------
      1          6           0       -2.454287    0.629383   -0.254863
      2          6           0       -2.335956   -0.794037   -0.218233
      3          6           0       -1.131676   -1.394128    0.066127
      4          7           0       -0.089646   -0.576972    0.311260
      5          5           0       -0.085129    0.851346    0.269807
      6          6           0       -1.407109    1.506499   -0.028895
      7          6           0        1.507297    0.874389    0.576920
      8          6           0        2.415517    0.620960   -0.618786
      9          6           0        2.262525   -0.712821   -0.622022
     10          6           0        1.352173   -0.700178    0.595896
     11          1           0       -3.448060    1.026744   -0.480897
     12          1           0       -3.208605   -1.414589   -0.412882
     13          1           0       -0.992598   -2.474593    0.112460
     14          1           0       -1.614002    2.576008   -0.083617
     15          1           0        1.925585    1.394883    1.445040
     16          1           0        2.950601    1.306854   -1.275634
     17          1           0        2.587274   -1.512019   -1.286058
     18          1           0        1.602077   -1.301607    1.476861
 ---------------------------------------------------------------------
 Rotational constants (GHZ):      3.2814490      1.1627400      0.9526906
 Leave Link  202 at Thu Jun 11 17:48:45 2026, MaxMem= 12079595520 cpu:         0.2
 (Enter /local/gaussian-09.D01/g09/l301.exe)
 Standard basis: Aug-CC-pVDZ (5D, 7F)
 Ernie: Thresh=  0.10000D-02 Tol=  0.10000D-05 Strict=F.
 Ernie:  20 primitive shells out of 306 were deleted.
 There are   322 symmetry adapted cartesian basis functions of A   symmetry.
 There are   302 symmetry adapted basis functions of A   symmetry.
   302 basis functions,   518 primitive gaussians,   322 cartesian basis functions
    34 alpha electrons       34 beta electrons
       nuclear repulsion energy       460.5903879357 Hartrees.
 IExCor= 4639 DFT=T Ex+Corr=wB97XD ExCW=0 ScaHFX=  1.000000
 ScaDFX=  1.000000  1.000000  1.000000  1.000000 ScalE2=  1.000000  1.000000
 IRadAn=      5 IRanWt=     -1 IRanGd=            0 ICorTp=0 IEmpDi=121
  HFx wShort=  0.000000 wLong=  0.200000 cFull=  0.222036 cShort=  0.000000 cLong=  0.777964
  DFx wShort=  0.000000 wLong=  0.200000 cFull=  0.000000 cShort=  0.000000 cLong=  1.000000
 NAtoms=   18 NActive=   18 NUniq=   18 SFac= 1.00D+00 NAtFMM=   60 NAOKFM=F Big=F
 Integral buffers will be    131072 words long.
 Raffenetti 2 integral format.
 Two-electron integral symmetry is turned on.
 R6Disp:  Grimme-D2 Dispersion energy=       -0.0095631548 Hartrees.
 Nuclear repulsion after empirical dispersion term =      460.5808247810 Hartrees.
 Leave Link  301 at Thu Jun 11 17:48:45 2026, MaxMem= 12079595520 cpu:         1.5
 (Enter /local/gaussian-09.D01/g09/l302.exe)
 NPDir=0 NMtPBC=     1 NCelOv=     1 NCel=       1 NClECP=     1 NCelD=      1
         NCelK=      1 NCelE2=     1 NClLst=     1 CellRange=     0.0.
 One-electron integrals computed using PRISM.
 NBasis=   302 RedAO= T EigKep=  5.86D-06  NBF=   302
 NBsUse=   302 1.00D-06 EigRej= -1.00D+00 NBFU=   302
 Precomputing XC quadrature grid using
 IXCGrd= 4 IRadAn=           5 IRanWt=          -1 IRanGd=           0 AccXCQ= 0.00D+00.
 Generated NRdTot=       0 NPtTot=           0 NUsed=           0 NTot=          32
 NSgBfM=   322   322   322   322   322 MxSgAt=    18 MxSgA2=    18.
 Leave Link  302 at Thu Jun 11 17:48:45 2026, MaxMem= 12079595520 cpu:        16.0
 (Enter /local/gaussian-09.D01/g09/l308.exe)
 Leave Link  308 at Thu Jun 11 17:48:46 2026, MaxMem= 12079595520 cpu:         2.6
 (Enter /local/gaussian-09.D01/g09/l303.exe)
 DipDrv:  MaxL=1.
 Leave Link  303 at Thu Jun 11 17:48:46 2026, MaxMem= 12079595520 cpu:         2.1
 (Enter /local/gaussian-09.D01/g09/l401.exe)
 ExpMin= 2.38D-02 ExpMax= 9.05D+03 ExpMxC= 3.09D+02 IAcc=3 IRadAn=         5 AccDes= 0.00D+00
 Harris functional with IExCor= 4639 and IRadAn=       5 diagonalized for initial guess.
 HarFok:  IExCor= 4639 AccDes= 0.00D+00 IRadAn=         5 IDoV= 1 UseB2=F ITyADJ=14
 ICtDFT=  3500011 ScaDFX=  1.000000  1.000000  1.000000  1.000000
 FoFCou: FMM=F IPFlag=           0 FMFlag=      100000 FMFlg1=           0
         NFxFlg=           0 DoJE=T BraDBF=F KetDBF=T FulRan=T
         wScrn=  0.000000 ICntrl=     500 IOpCl=  0 I1Cent=   200000004 NGrid=           0
         NMat0=    1 NMatS0=      1 NMatT0=    0 NMatD0=    1 NMtDS0=    0 NMtDT0=    0
 Petite list used in FoFCou.
 Harris En= -371.359294110328    
 JPrj=0 DoOrth=F DoCkMO=F.
 Leave Link  401 at Thu Jun 11 17:48:47 2026, MaxMem= 12079595520 cpu:        44.9
 (Enter /local/gaussian-09.D01/g09/l502.exe)
 Closed shell SCF:
 Using DIIS extrapolation, IDIIS=  1040.
 Integral symmetry usage will be decided dynamically.
 Keep R1 ints in memory in canonical form, NReq=2110824296.
 IVT=      592562 IEndB=      592562 NGot= 12079595520 MDV=  9985620197
 LenX=  9985620197 LenY=  9985516072
 Requested convergence on RMS density matrix=1.00D-08 within 512 cycles.
 Requested convergence on MAX density matrix=1.00D-06.
 Requested convergence on             energy=1.00D-06.
 No special actions if energy rises.
 FoFCou: FMM=F IPFlag=           0 FMFlag=           0 FMFlg1=           0
         NFxFlg=           0 DoJE=F BraDBF=F KetDBF=F FulRan=T
         wScrn=  0.000000 ICntrl=     600 IOpCl=  0 I1Cent=           0 NGrid=           0
         NMat0=    1 NMatS0=  45753 NMatT0=    0 NMatD0=    1 NMtDS0=    0 NMtDT0=    0
 Symmetry not used in FoFCou.

 Cycle   1  Pass 1  IDiag  1:
 E= -389.027954225524    
 DIIS: error= 1.39D-02 at cycle   1 NSaved=   1.
 NSaved= 1 IEnMin= 1 EnMin= -389.027954225524     IErMin= 1 ErrMin= 1.39D-02
 ErrMax= 1.39D-02  0.00D+00 EMaxC= 1.00D-01 BMatC= 1.75D-01 BMatP= 1.75D-01
 IDIUse=3 WtCom= 8.61D-01 WtEn= 1.39D-01
 Coeff-Com:  0.100D+01
 Coeff-En:   0.100D+01
 Coeff:      0.100D+01
 Gap=     0.316 Goal=   None    Shift=    0.000
 GapD=    0.316 DampG=1.000 DampE=0.500 DampFc=0.5000 IDamp=-1.
 Damping current iteration by 5.00D-01
 RMSDP=9.93D-03 MaxDP=5.12D-01              OVMax= 1.93D-01

 Cycle   2  Pass 1  IDiag  1:
 E= -389.069606127381     Delta-E=       -0.041651901857 Rises=F Damp=T
 DIIS: error= 6.17D-03 at cycle   2 NSaved=   2.
 NSaved= 2 IEnMin= 2 EnMin= -389.069606127381     IErMin= 2 ErrMin= 6.17D-03
 ErrMax= 6.17D-03  0.00D+00 EMaxC= 1.00D-01 BMatC= 3.21D-02 BMatP= 1.75D-01
 IDIUse=3 WtCom= 9.38D-01 WtEn= 6.17D-02
 Coeff-Com: -0.159D+00 0.116D+01
 Coeff-En:   0.204D-01 0.980D+00
 Coeff:     -0.148D+00 0.115D+01
 Gap=     0.345 Goal=   None    Shift=    0.000
 RMSDP=4.90D-03 MaxDP=2.81D-01 DE=-4.17D-02 OVMax= 1.46D-01

 Cycle   3  Pass 1  IDiag  1:
 E= -389.111980337584     Delta-E=       -0.042374210203 Rises=F Damp=F
 DIIS: error= 3.35D-03 at cycle   3 NSaved=   3.
 NSaved= 3 IEnMin= 3 EnMin= -389.111980337584     IErMin= 3 ErrMin= 3.35D-03
 ErrMax= 3.35D-03  0.00D+00 EMaxC= 1.00D-01 BMatC= 1.19D-02 BMatP= 3.21D-02
 IDIUse=3 WtCom= 9.66D-01 WtEn= 3.35D-02
 Coeff-Com: -0.241D+00 0.494D+00 0.746D+00
 Coeff-En:   0.000D+00 0.000D+00 0.100D+01
 Coeff:     -0.232D+00 0.478D+00 0.755D+00
 Gap=     0.331 Goal=   None    Shift=    0.000
 RMSDP=9.39D-04 MaxDP=3.97D-02 DE=-4.24D-02 OVMax= 4.36D-02

 Cycle   4  Pass 1  IDiag  1:
 E= -389.122971561347     Delta-E=       -0.010991223764 Rises=F Damp=F
 DIIS: error= 1.00D-03 at cycle   4 NSaved=   4.
 NSaved= 4 IEnMin= 4 EnMin= -389.122971561347     IErMin= 4 ErrMin= 1.00D-03
 ErrMax= 1.00D-03  0.00D+00 EMaxC= 1.00D-01 BMatC= 7.17D-04 BMatP= 1.19D-02
 IDIUse=3 WtCom= 9.90D-01 WtEn= 1.00D-02
 Coeff-Com: -0.100D+00 0.188D+00 0.365D+00 0.548D+00
 Coeff-En:   0.000D+00 0.000D+00 0.000D+00 0.100D+01
 Coeff:     -0.991D-01 0.186D+00 0.361D+00 0.552D+00
 Gap=     0.327 Goal=   None    Shift=    0.000
 RMSDP=2.46D-04 MaxDP=1.07D-02 DE=-1.10D-02 OVMax= 6.63D-03

 Cycle   5  Pass 1  IDiag  1:
 E= -389.123667778180     Delta-E=       -0.000696216832 Rises=F Damp=F
 DIIS: error= 1.14D-04 at cycle   5 NSaved=   5.
 NSaved= 5 IEnMin= 5 EnMin= -389.123667778180     IErMin= 5 ErrMin= 1.14D-04
 ErrMax= 1.14D-04  0.00D+00 EMaxC= 1.00D-01 BMatC= 1.64D-05 BMatP= 7.17D-04
 IDIUse=3 WtCom= 9.99D-01 WtEn= 1.14D-03
 Coeff-Com:  0.104D-02-0.491D-02 0.192D-01 0.882D-01 0.896D+00
 Coeff-En:   0.000D+00 0.000D+00 0.000D+00 0.000D+00 0.100D+01
 Coeff:      0.104D-02-0.490D-02 0.191D-01 0.881D-01 0.897D+00
 Gap=     0.327 Goal=   None    Shift=    0.000
 RMSDP=8.13D-05 MaxDP=3.75D-03 DE=-6.96D-04 OVMax= 3.26D-03

 Cycle   6  Pass 1  IDiag  1:
 E= -389.123699391060     Delta-E=       -0.000031612881 Rises=F Damp=F
 DIIS: error= 7.73D-05 at cycle   6 NSaved=   6.
 NSaved= 6 IEnMin= 6 EnMin= -389.123699391060     IErMin= 6 ErrMin= 7.73D-05
 ErrMax= 7.73D-05  0.00D+00 EMaxC= 1.00D-01 BMatC= 5.41D-06 BMatP= 1.64D-05
 IDIUse=1 WtCom= 1.00D+00 WtEn= 0.00D+00
 Coeff-Com:  0.205D-01-0.399D-01-0.594D-01-0.690D-01 0.376D+00 0.772D+00
 Coeff:      0.205D-01-0.399D-01-0.594D-01-0.690D-01 0.376D+00 0.772D+00
 Gap=     0.327 Goal=   None    Shift=    0.000
 RMSDP=3.35D-05 MaxDP=1.55D-03 DE=-3.16D-05 OVMax= 2.27D-03

 Cycle   7  Pass 1  IDiag  1:
 E= -389.123709679583     Delta-E=       -0.000010288523 Rises=F Damp=F
 DIIS: error= 2.28D-05 at cycle   7 NSaved=   7.
 NSaved= 7 IEnMin= 7 EnMin= -389.123709679583     IErMin= 7 ErrMin= 2.28D-05
 ErrMax= 2.28D-05  0.00D+00 EMaxC= 1.00D-01 BMatC= 3.62D-07 BMatP= 5.41D-06
 IDIUse=1 WtCom= 1.00D+00 WtEn= 0.00D+00
 Coeff-Com:  0.328D-02-0.608D-02-0.979D-02-0.183D-01-0.351D-01 0.118D+00
 Coeff-Com:  0.948D+00
 Coeff:      0.328D-02-0.608D-02-0.979D-02-0.183D-01-0.351D-01 0.118D+00
 Coeff:      0.948D+00
 Gap=     0.327 Goal=   None    Shift=    0.000
 RMSDP=1.11D-05 MaxDP=6.98D-04 DE=-1.03D-05 OVMax= 7.55D-04

 Cycle   8  Pass 1  IDiag  1:
 E= -389.123711019365     Delta-E=       -0.000001339782 Rises=F Damp=F
 DIIS: error= 1.28D-05 at cycle   8 NSaved=   8.
 NSaved= 8 IEnMin= 8 EnMin= -389.123711019365     IErMin= 8 ErrMin= 1.28D-05
 ErrMax= 1.28D-05  0.00D+00 EMaxC= 1.00D-01 BMatC= 7.70D-08 BMatP= 3.62D-07
 IDIUse=1 WtCom= 1.00D+00 WtEn= 0.00D+00
 Coeff-Com: -0.321D-02 0.637D-02 0.100D-01 0.100D-01-0.873D-01-0.124D+00
 Coeff-Com:  0.259D+00 0.929D+00
 Coeff:     -0.321D-02 0.637D-02 0.100D-01 0.100D-01-0.873D-01-0.124D+00
 Coeff:      0.259D+00 0.929D+00
 Gap=     0.327 Goal=   None    Shift=    0.000
 RMSDP=5.74D-06 MaxDP=3.23D-04 DE=-1.34D-06 OVMax= 5.11D-04

 Cycle   9  Pass 1  IDiag  1:
 E= -389.123711305064     Delta-E=       -0.000000285699 Rises=F Damp=F
 DIIS: error= 3.24D-06 at cycle   9 NSaved=   9.
 NSaved= 9 IEnMin= 9 EnMin= -389.123711305064     IErMin= 9 ErrMin= 3.24D-06
 ErrMax= 3.24D-06  0.00D+00 EMaxC= 1.00D-01 BMatC= 9.52D-09 BMatP= 7.70D-08
 IDIUse=1 WtCom= 1.00D+00 WtEn= 0.00D+00
 Coeff-Com: -0.126D-02 0.244D-02 0.400D-02 0.519D-02-0.212D-01-0.498D-01
 Coeff-Com: -0.533D-01 0.265D+00 0.849D+00
 Coeff:     -0.126D-02 0.244D-02 0.400D-02 0.519D-02-0.212D-01-0.498D-01
 Coeff:     -0.533D-01 0.265D+00 0.849D+00
 Gap=     0.327 Goal=   None    Shift=    0.000
 RMSDP=2.23D-06 MaxDP=1.85D-04 DE=-2.86D-07 OVMax= 1.36D-04

 Cycle  10  Pass 1  IDiag  1:
 E= -389.123711334470     Delta-E=       -0.000000029406 Rises=F Damp=F
 DIIS: error= 1.91D-06 at cycle  10 NSaved=  10.
 NSaved=10 IEnMin=10 EnMin= -389.123711334470     IErMin=10 ErrMin= 1.91D-06
 ErrMax= 1.91D-06  0.00D+00 EMaxC= 1.00D-01 BMatC= 1.48D-09 BMatP= 9.52D-09
 IDIUse=1 WtCom= 1.00D+00 WtEn= 0.00D+00
 Coeff-Com:  0.556D-04-0.129D-03-0.108D-03 0.282D-03 0.432D-02 0.135D-02
 Coeff-Com: -0.508D-01-0.421D-01 0.272D+00 0.815D+00
 Coeff:      0.556D-04-0.129D-03-0.108D-03 0.282D-03 0.432D-02 0.135D-02
 Coeff:     -0.508D-01-0.421D-01 0.272D+00 0.815D+00
 Gap=     0.327 Goal=   None    Shift=    0.000
 RMSDP=5.96D-07 MaxDP=2.43D-05 DE=-2.94D-08 OVMax= 4.58D-05

 Cycle  11  Pass 1  IDiag  1:
 E= -389.123711337706     Delta-E=       -0.000000003236 Rises=F Damp=F
 DIIS: error= 5.22D-07 at cycle  11 NSaved=  11.
 NSaved=11 IEnMin=11 EnMin= -389.123711337706     IErMin=11 ErrMin= 5.22D-07
 ErrMax= 5.22D-07  0.00D+00 EMaxC= 1.00D-01 BMatC= 2.86D-10 BMatP= 1.48D-09
 IDIUse=1 WtCom= 1.00D+00 WtEn= 0.00D+00
 Coeff-Com:  0.236D-03-0.465D-03-0.693D-03-0.699D-03 0.521D-02 0.958D-02
 Coeff-Com: -0.109D-01-0.599D-01-0.153D-01 0.336D+00 0.737D+00
 Coeff:      0.236D-03-0.465D-03-0.693D-03-0.699D-03 0.521D-02 0.958D-02
 Coeff:     -0.109D-01-0.599D-01-0.153D-01 0.336D+00 0.737D+00
 Gap=     0.327 Goal=   None    Shift=    0.000
 RMSDP=2.48D-07 MaxDP=1.28D-05 DE=-3.24D-09 OVMax= 1.00D-05

 Cycle  12  Pass 1  IDiag  1:
 E= -389.123711338198     Delta-E=       -0.000000000492 Rises=F Damp=F
 DIIS: error= 2.30D-07 at cycle  12 NSaved=  12.
 NSaved=12 IEnMin=12 EnMin= -389.123711338198     IErMin=12 ErrMin= 2.30D-07
 ErrMax= 2.30D-07  0.00D+00 EMaxC= 1.00D-01 BMatC= 2.33D-11 BMatP= 2.86D-10
 IDIUse=1 WtCom= 1.00D+00 WtEn= 0.00D+00
 Coeff-Com:  0.704D-04-0.136D-03-0.210D-03-0.251D-03 0.915D-03 0.311D-02
 Coeff-Com:  0.284D-02-0.144D-01-0.383D-01-0.127D-01 0.177D+00 0.882D+00
 Coeff:      0.704D-04-0.136D-03-0.210D-03-0.251D-03 0.915D-03 0.311D-02
 Coeff:      0.284D-02-0.144D-01-0.383D-01-0.127D-01 0.177D+00 0.882D+00
 Gap=     0.327 Goal=   None    Shift=    0.000
 RMSDP=9.95D-08 MaxDP=5.36D-06 DE=-4.92D-10 OVMax= 5.92D-06

 Cycle  13  Pass 1  IDiag  1:
 E= -389.123711338277     Delta-E=       -0.000000000079 Rises=F Damp=F
 DIIS: error= 6.15D-08 at cycle  13 NSaved=  13.
 NSaved=13 IEnMin=13 EnMin= -389.123711338277     IErMin=13 ErrMin= 6.15D-08
 ErrMax= 6.15D-08  0.00D+00 EMaxC= 1.00D-01 BMatC= 3.30D-12 BMatP= 2.33D-11
 IDIUse=1 WtCom= 1.00D+00 WtEn= 0.00D+00
 Coeff-Com: -0.142D-04 0.286D-04 0.452D-04 0.374D-04-0.502D-03-0.379D-03
 Coeff-Com:  0.175D-02 0.390D-02-0.458D-02-0.431D-01-0.762D-01 0.150D+00
 Coeff-Com:  0.969D+00
 Coeff:     -0.142D-04 0.286D-04 0.452D-04 0.374D-04-0.502D-03-0.379D-03
 Coeff:      0.175D-02 0.390D-02-0.458D-02-0.431D-01-0.762D-01 0.150D+00
 Coeff:      0.969D+00
 Gap=     0.327 Goal=   None    Shift=    0.000
 RMSDP=4.51D-08 MaxDP=2.25D-06 DE=-7.88D-11 OVMax= 2.31D-06

 Cycle  14  Pass 1  IDiag  1:
 E= -389.123711338297     Delta-E=       -0.000000000020 Rises=F Damp=F
 DIIS: error= 1.94D-08 at cycle  14 NSaved=  14.
 NSaved=14 IEnMin=14 EnMin= -389.123711338297     IErMin=14 ErrMin= 1.94D-08
 ErrMax= 1.94D-08  0.00D+00 EMaxC= 1.00D-01 BMatC= 3.50D-13 BMatP= 3.30D-12
 IDIUse=1 WtCom= 1.00D+00 WtEn= 0.00D+00
 Coeff-Com: -0.644D-05 0.125D-04 0.212D-04 0.195D-04-0.141D-03-0.243D-03
 Coeff-Com: -0.120D-03 0.147D-02 0.371D-02-0.144D-02-0.311D-01-0.709D-01
 Coeff-Com:  0.152D+00 0.947D+00
 Coeff:     -0.644D-05 0.125D-04 0.212D-04 0.195D-04-0.141D-03-0.243D-03
 Coeff:     -0.120D-03 0.147D-02 0.371D-02-0.144D-02-0.311D-01-0.709D-01
 Coeff:      0.152D+00 0.947D+00
 Gap=     0.327 Goal=   None    Shift=    0.000
 RMSDP=1.47D-08 MaxDP=6.61D-07 DE=-1.98D-11 OVMax= 7.82D-07

 Cycle  15  Pass 1  IDiag  1:
 E= -389.123711338292     Delta-E=        0.000000000005 Rises=F Damp=F
 DIIS: error= 9.08D-09 at cycle  15 NSaved=  15.
 NSaved=15 IEnMin=14 EnMin= -389.123711338297     IErMin=15 ErrMin= 9.08D-09
 ErrMax= 9.08D-09  0.00D+00 EMaxC= 1.00D-01 BMatC= 8.36D-14 BMatP= 3.50D-13
 IDIUse=1 WtCom= 1.00D+00 WtEn= 0.00D+00
 Coeff-Com: -0.447D-06 0.717D-06 0.225D-05 0.163D-05 0.126D-04-0.278D-04
 Coeff-Com: -0.271D-03 0.296D-05 0.206D-02 0.587D-02-0.179D-02-0.470D-01
 Coeff-Com: -0.899D-01 0.363D+00 0.768D+00
 Coeff:     -0.447D-06 0.717D-06 0.225D-05 0.163D-05 0.126D-04-0.278D-04
 Coeff:     -0.271D-03 0.296D-05 0.206D-02 0.587D-02-0.179D-02-0.470D-01
 Coeff:     -0.899D-01 0.363D+00 0.768D+00
 Gap=     0.327 Goal=   None    Shift=    0.000
 RMSDP=5.47D-09 MaxDP=2.02D-07 DE= 5.23D-12 OVMax= 1.83D-07

 SCF Done:  E(RwB97XD) =  -389.123711338     A.U. after   15 cycles
            NFock= 15  Conv=0.55D-08     -V/T= 2.0063
 KE= 3.866952218637D+02 PE=-1.823781510503D+03 EE= 5.873817525196D+02
 Leave Link  502 at Thu Jun 11 17:49:40 2026, MaxMem= 12079595520 cpu:      1215.8
 (Enter /local/gaussian-09.D01/g09/l801.exe)
 DoSCS=F DFT=T ScalE2(SS,OS)=  1.000000  1.000000
 Range of M.O.s used for correlation:     1   302
 NBasis=   302 NAE=    34 NBE=    34 NFC=     0 NFV=     0
 NROrb=    302 NOA=    34 NOB=    34 NVA=   268 NVB=   268

 **** Warning!!: The largest alpha MO coefficient is  0.71745296D+02

 Leave Link  801 at Thu Jun 11 17:49:41 2026, MaxMem= 12079595520 cpu:         0.4
 (Enter /local/gaussian-09.D01/g09/l1002.exe)
 Minotr:  Closed shell wavefunction.
          Direct CPHF calculation.
          Differentiating once with respect to magnetic field.
          Electric field/nuclear overlap derivatives assumed to be zero.
          Requested convergence is 1.0D-08 RMS, and 1.0D-07 maximum.
          Secondary convergence is 1.0D-12 RMS, and 1.0D-12 maximum.
          NewPWx=T KeepS1=F KeepF1=F KeepIn=T MapXYZ=F SortEE=F KeepMc=T.
          MDV=   12079595070 using IRadAn=       1.
 Generate precomputed XC quadrature information.
 Keep R3 ints in memory in canonical form, NReq=2110239494.
 FoFCou: FMM=F IPFlag=           0 FMFlag=           0 FMFlg1=           0
         NFxFlg=           0 DoJE=F BraDBF=F KetDBF=F FulRan=T
         wScrn=  0.000000 ICntrl=     600 IOpCl=  0 I1Cent=           0 NGrid=           0
         NMat0=    1 NMatS0=  45753 NMatT0=    0 NMatD0=    1 NMtDS0=    0 NMtDT0=    0
 Symmetry not used in FoFCou.
          Solving linear equations simultaneously, MaxMat=       0.
          There are     6 degrees of freedom in the 1st order CPHF.  IDoFFX=0 NUNeed=     6.
      6 vectors produced by pass  0 Test12= 1.52D-13 1.67D-08 XBig12= 1.62D+02 2.41D+00.
 AX will form     6 AO Fock derivatives at one time.
      6 vectors produced by pass  1 Test12= 1.52D-13 1.67D-08 XBig12= 1.65D+00 5.08D-01.
      6 vectors produced by pass  2 Test12= 1.52D-13 1.67D-08 XBig12= 4.18D-02 5.47D-02.
      6 vectors produced by pass  3 Test12= 1.52D-13 1.67D-08 XBig12= 4.70D-04 3.40D-03.
      6 vectors produced by pass  4 Test12= 1.52D-13 1.67D-08 XBig12= 5.90D-06 3.81D-04.
      6 vectors produced by pass  5 Test12= 1.52D-13 1.67D-08 XBig12= 6.83D-08 6.29D-05.
      6 vectors produced by pass  6 Test12= 1.52D-13 1.67D-08 XBig12= 6.63D-10 5.95D-06.
      6 vectors produced by pass  7 Test12= 1.52D-13 1.67D-08 XBig12= 7.65D-12 3.60D-07.
      3 vectors produced by pass  8 Test12= 1.52D-13 1.67D-08 XBig12= 8.87D-14 3.45D-08.
 InvSVY:  IOpt=1 It=  1 EMax= 7.11D-15
 Solved reduced A of dimension    51 with     6 vectors.
 Calculating magnetic properties, IRadAn=         5.
 Writing AICD file "ACID_GRID.txt"
 There are a total of      416754 grid points.
 ElSum from         orbitals=     1782.2740990456

     Magnetic properties (CSGT method)

 Magnetic susceptibility (cgs-ppm):
   Isotropic =   -76.6330   Anisotropy=    31.0067
   XX=   -66.6115   YX=    -0.1747   ZX=     9.0186
   XY=    -0.1392   YY=   -55.9741   ZY=    -0.5261
   XZ=     8.9654   YZ=    -0.5267   ZZ=  -107.3135
   Eigenvalues:  -109.2159   -64.7213   -55.9619
 Magnetic shielding (ppm):
      1  C    Isotropic =    47.6909   Anisotropy =   198.4388
   XX=   -23.5374   YX=    46.0593   ZX=   -46.9918
   XY=    50.3888   YY=    -2.4430   ZY=    12.6391
   XZ=   -47.2947   YZ=    12.3254   ZZ=   169.0532
   Eigenvalues:   -70.7594    33.8487   179.9834
      2  C    Isotropic =    83.5544   Anisotropy =   138.3030
   XX=    36.8866   YX=   -46.2604   ZX=   -32.0144
   XY=   -51.4230   YY=    45.6947   ZY=   -10.7928
   XZ=   -33.1903   YZ=    -9.1074   ZZ=   168.0820
   Eigenvalues:   -13.0402    87.9471   175.7564
      3  C    Isotropic =    59.3517   Anisotropy =   143.7680
   XX=    54.4313   YX=    -7.6063   ZX=   -22.4772
   XY=   -15.6223   YY=   -27.0685   ZY=    -1.4843
   XZ=   -20.1303   YZ=    -2.6735   ZZ=   150.6923
   Eigenvalues:   -28.8350    51.6931   155.1971
      4  N    Isotropic =    58.1148   Anisotropy =   257.9860
   XX=   -66.7070   YX=    -6.8297   ZX=   -55.2778
   XY=    45.1937   YY=    29.6773   ZY=     1.3419
   XZ=   -82.8449   YZ=   -38.4725   ZZ=   211.3741
   Eigenvalues:   -84.7602    28.9992   230.1055
      5  B    Isotropic =    79.3111   Anisotropy =    70.1283
   XX=    66.8379   YX=   -14.3075   ZX=    -7.8300
   XY=   -22.8178   YY=    48.7944   ZY=    -0.6067
   XZ=   -18.5780   YZ=     7.6247   ZZ=   122.3010
   Eigenvalues:    36.9772    74.8927   126.0633
      6  C    Isotropic =    71.9035   Anisotropy =   181.2379
   XX=    60.2127   YX=     7.8000   ZX=   -28.1383
   XY=    17.6290   YY=   -30.9946   ZY=     5.2579
   XZ=   -28.6103   YZ=    12.1529   ZZ=   186.4924
   Eigenvalues:   -33.4662    56.4480   192.7288
      7  C    Isotropic =   150.2374   Anisotropy =    15.1184
   XX=   155.1019   YX=    -0.4504   ZX=    -3.7532
   XY=    -1.2164   YY=   144.9167   ZY=   -11.9579
   XZ=    -1.9455   YZ=   -11.1461   ZZ=   150.6936
   Eigenvalues:   135.5977   154.7981   160.3163
      8  C    Isotropic =    42.1006   Anisotropy =   174.6557
   XX=    85.1824   YX=   -14.2482   ZX=    91.7862
   XY=     0.4858   YY=    36.4570   ZY=   -20.3256
   XZ=   120.4229   YZ=    26.2792   ZZ=     4.6625
   Eigenvalues:   -68.9472    36.7113   158.5378
      9  C    Isotropic =    54.0603   Anisotropy =   151.8892
   XX=    94.7927   YX=     7.0358   ZX=    86.7563
   XY=   -13.1194   YY=    51.2899   ZY=    -4.9598
   XZ=    88.9723   YZ=   -55.8528   ZZ=    16.0984
   Eigenvalues:   -46.7468    53.6080   155.3198
     10  C    Isotropic =   125.8654   Anisotropy =    36.1605
   XX=   147.5763   YX=     5.7816   ZX=    12.4986
   XY=    -2.1791   YY=   112.2845   ZY=    10.8007
   XZ=     2.5820   YZ=    13.0290   ZZ=   117.7356
   Eigenvalues:   102.5357   125.0882   149.9724
     11  H    Isotropic =    23.4283   Anisotropy =     5.2994
   XX=    23.7293   YX=     1.4407   ZX=     0.5108
   XY=     2.8200   YY=    25.4522   ZY=     0.6427
   XZ=     0.3983   YZ=     0.3171   ZZ=    21.1035
   Eigenvalues:    21.0218    22.3020    26.9612
     12  H    Isotropic =    24.9874   Anisotropy =     3.7049
   XX=    26.2918   YX=    -1.3347   ZX=     0.8630
   XY=    -0.7859   YY=    26.2532   ZY=    -0.2107
   XZ=     0.8913   YZ=    -0.2425   ZZ=    22.4173
   Eigenvalues:    22.2279    25.2770    27.4574
     13  H    Isotropic =    23.7028   Anisotropy =     4.7996
   XX=    26.3583   YX=     1.5546   ZX=     1.1063
   XY=     0.4865   YY=    23.9723   ZY=    -0.0315
   XZ=     1.1318   YZ=    -0.2232   ZZ=    20.7778
   Eigenvalues:    20.5308    23.6750    26.9025
     14  H    Isotropic =    24.5553   Anisotropy =     4.4851
   XX=    27.2564   YX=     0.1601   ZX=     0.7822
   XY=     1.0510   YY=    23.0533   ZY=     0.2982
   XZ=     0.9549   YZ=     0.5721   ZZ=    23.3561
   Eigenvalues:    22.7439    23.3765    27.5453
     15  H    Isotropic =    27.9709   Anisotropy =     5.0382
   XX=    27.0788   YX=     1.1139   ZX=     1.1227
   XY=     0.5134   YY=    28.0140   ZY=     1.3640
   XZ=     2.1383   YZ=     2.8923   ZZ=    28.8198
   Eigenvalues:    25.9073    26.6756    31.3297
     16  H    Isotropic =    24.1656   Anisotropy =     2.0524
   XX=    25.1152   YX=    -0.2763   ZX=     0.4112
   XY=     0.9301   YY=    24.9263   ZY=    -0.7732
   XZ=     0.6654   YZ=     1.7664   ZZ=    22.4553
   Eigenvalues:    22.2807    24.6823    25.5339
     17  H    Isotropic =    24.5971   Anisotropy =     1.6872
   XX=    25.2494   YX=     0.4762   ZX=     0.7722
   XY=    -1.0964   YY=    25.5147   ZY=     1.1318
   XZ=    -0.7621   YZ=    -1.3218   ZZ=    23.0270
   Eigenvalues:    23.0234    25.0459    25.7219
     18  H    Isotropic =    26.2258   Anisotropy =     5.2956
   XX=    27.0173   YX=    -1.5450   ZX=     2.3983
   XY=     0.1346   YY=    25.4215   ZY=    -0.6796
   XZ=     2.4276   YZ=    -2.8863   ZZ=    26.2387
   Eigenvalues:    23.5732    25.3480    29.7562
 Current density tensor (au):
   XX=    -0.0033   YX=     0.0153   ZX=     0.0191
   XY=    -0.0087   YY=    -0.0003   ZY=     0.0164
   XZ=    -0.0139   YZ=     0.0027   ZZ=     0.0060
 End of Minotr F.D. properties file   721 does not exist.
 End of Minotr F.D. properties file   722 does not exist.
 End of Minotr F.D. properties file   788 does not exist.
 Leave Link 1002 at Thu Jun 11 17:51:00 2026, MaxMem= 12079595520 cpu:      1410.4
 (Enter /local/gaussian-09.D01/g09/l601.exe)
 Copying SCF densities to generalized density rwf, IOpCl= 0 IROHF=0.

 **********************************************************************

            Population analysis using the SCF density.

 **********************************************************************

 Orbital symmetries:
       Occupied  (A) (A) (A) (A) (A) (A) (A) (A) (A) (A) (A) (A)
                 (A) (A) (A) (A) (A) (A) (A) (A) (A) (A) (A) (A)
                 (A) (A) (A) (A) (A) (A) (A) (A) (A) (A)
       Virtual   (A) (A) (A) (A) (A) (A) (A) (A) (A) (A) (A) (A)
                 (A) (A) (A) (A) (A) (A) (A) (A) (A) (A) (A) (A)
                 (A) (A) (A) (A) (A) (A) (A) (A) (A) (A) (A) (A)
                 (A) (A) (A) (A) (A) (A) (A) (A) (A) (A) (A) (A)
                 (A) (A) (A) (A) (A) (A) (A) (A) (A) (A) (A) (A)
                 (A) (A) (A) (A) (A) (A) (A) (A) (A) (A) (A) (A)
                 (A) (A) (A) (A) (A) (A) (A) (A) (A) (A) (A) (A)
                 (A) (A) (A) (A) (A) (A) (A) (A) (A) (A) (A) (A)
                 (A) (A) (A) (A) (A) (A) (A) (A) (A) (A) (A) (A)
                 (A) (A) (A) (A) (A) (A) (A) (A) (A) (A) (A) (A)
                 (A) (A) (A) (A) (A) (A) (A) (A) (A) (A) (A) (A)
                 (A) (A) (A) (A) (A) (A) (A) (A) (A) (A) (A) (A)
                 (A) (A) (A) (A) (A) (A) (A) (A) (A) (A) (A) (A)
                 (A) (A) (A) (A) (A) (A) (A) (A) (A) (A) (A) (A)
                 (A) (A) (A) (A) (A) (A) (A) (A) (A) (A) (A) (A)
                 (A) (A) (A) (A) (A) (A) (A) (A) (A) (A) (A) (A)
                 (A) (A) (A) (A) (A) (A) (A) (A) (A) (A) (A) (A)
                 (A) (A) (A) (A) (A) (A) (A) (A) (A) (A) (A) (A)
                 (A) (A) (A) (A) (A) (A) (A) (A) (A) (A) (A) (A)
                 (A) (A) (A) (A) (A) (A) (A) (A) (A) (A) (A) (A)
                 (A) (A) (A) (A) (A) (A) (A) (A) (A) (A) (A) (A)
                 (A) (A) (A) (A) (A) (A) (A) (A) (A) (A) (A) (A)
                 (A) (A) (A) (A)
 The electronic state is 1-A.
 Alpha  occ. eigenvalues --  -14.47156 -10.34752 -10.34306 -10.31226 -10.30945
 Alpha  occ. eigenvalues --  -10.30207 -10.29454 -10.28908 -10.27086  -6.83058
 Alpha  occ. eigenvalues --   -1.06653  -0.96306  -0.88934  -0.82953  -0.76179
 Alpha  occ. eigenvalues --   -0.74387  -0.69119  -0.65822  -0.62275  -0.60404
 Alpha  occ. eigenvalues --   -0.59244  -0.54850  -0.52179  -0.51162  -0.48982
 Alpha  occ. eigenvalues --   -0.47492  -0.45482  -0.42988  -0.41994  -0.40698
 Alpha  occ. eigenvalues --   -0.37457  -0.35320  -0.32854  -0.29660
 Alpha virt. eigenvalues --    0.03066   0.03492   0.04178   0.04458   0.04935
 Alpha virt. eigenvalues --    0.05705   0.05798   0.06119   0.06457   0.07523
 Alpha virt. eigenvalues --    0.07860   0.08280   0.08806   0.09667   0.11429
 Alpha virt. eigenvalues --    0.11901   0.12568   0.12863   0.13184   0.13961
 Alpha virt. eigenvalues --    0.14313   0.14567   0.14732   0.15057   0.15677
 Alpha virt. eigenvalues --    0.15702   0.16255   0.16600   0.17564   0.17712
 Alpha virt. eigenvalues --    0.17887   0.18221   0.18908   0.19093   0.20035
 Alpha virt. eigenvalues --    0.20239   0.20537   0.20807   0.21672   0.21917
 Alpha virt. eigenvalues --    0.22689   0.23341   0.24447   0.25606   0.26110
 Alpha virt. eigenvalues --    0.27549   0.27946   0.28681   0.28980   0.29616
 Alpha virt. eigenvalues --    0.30308   0.30622   0.31193   0.31282   0.31875
 Alpha virt. eigenvalues --    0.32430   0.33292   0.34171   0.34481   0.35622
 Alpha virt. eigenvalues --    0.36107   0.36339   0.37067   0.37350   0.38113
 Alpha virt. eigenvalues --    0.38899   0.39589   0.40474   0.40538   0.41547
 Alpha virt. eigenvalues --    0.43120   0.43204   0.43485   0.44457   0.45703
 Alpha virt. eigenvalues --    0.46871   0.47719   0.48374   0.48603   0.48918
 Alpha virt. eigenvalues --    0.49753   0.50879   0.51034   0.51627   0.53127
 Alpha virt. eigenvalues --    0.53336   0.54103   0.54414   0.54971   0.55601
 Alpha virt. eigenvalues --    0.55838   0.57207   0.57748   0.58011   0.58437
 Alpha virt. eigenvalues --    0.59157   0.60278   0.60867   0.61742   0.61923
 Alpha virt. eigenvalues --    0.63484   0.63831   0.64787   0.65308   0.65589
 Alpha virt. eigenvalues --    0.66403   0.67178   0.67958   0.68414   0.69081
 Alpha virt. eigenvalues --    0.69328   0.70034   0.70903   0.71475   0.71891
 Alpha virt. eigenvalues --    0.72477   0.73163   0.74462   0.75422   0.75827
 Alpha virt. eigenvalues --    0.76393   0.77559   0.77827   0.78332   0.79122
 Alpha virt. eigenvalues --    0.80422   0.80698   0.81967   0.82595   0.83043
 Alpha virt. eigenvalues --    0.83890   0.84950   0.86379   0.86740   0.88652
 Alpha virt. eigenvalues --    0.89379   0.90144   0.90542   0.91036   0.93567
 Alpha virt. eigenvalues --    0.94468   0.95352   0.96614   0.98731   0.99876
 Alpha virt. eigenvalues --    1.00598   1.01195   1.01571   1.03859   1.04872
 Alpha virt. eigenvalues --    1.06400   1.07116   1.08648   1.10767   1.14449
 Alpha virt. eigenvalues --    1.14496   1.15491   1.16796   1.17728   1.18103
 Alpha virt. eigenvalues --    1.23040   1.25690   1.29218   1.30243   1.31486
 Alpha virt. eigenvalues --    1.35908   1.37422   1.38682   1.40001   1.40186
 Alpha virt. eigenvalues --    1.41542   1.42874   1.44120   1.44662   1.45577
 Alpha virt. eigenvalues --    1.47810   1.49114   1.50044   1.50281   1.51234
 Alpha virt. eigenvalues --    1.52284   1.53945   1.55430   1.56206   1.57778
 Alpha virt. eigenvalues --    1.58085   1.60076   1.61303   1.62721   1.64334
 Alpha virt. eigenvalues --    1.65687   1.67009   1.68319   1.69532   1.70929
 Alpha virt. eigenvalues --    1.73195   1.74537   1.75367   1.76720   1.77150
 Alpha virt. eigenvalues --    1.80004   1.82068   1.83419   1.84340   1.86462
 Alpha virt. eigenvalues --    1.87923   1.88605   1.90186   1.92070   1.92390
 Alpha virt. eigenvalues --    1.94752   1.98159   1.98812   2.00338   2.01511
 Alpha virt. eigenvalues --    2.02114   2.03743   2.04064   2.04928   2.07199
 Alpha virt. eigenvalues --    2.10896   2.11630   2.12953   2.13960   2.15616
 Alpha virt. eigenvalues --    2.16635   2.18596   2.19100   2.22354   2.23915
 Alpha virt. eigenvalues --    2.26599   2.29321   2.30501   2.32446   2.34931
 Alpha virt. eigenvalues --    2.36723   2.40031   2.42201   2.43429   2.45180
 Alpha virt. eigenvalues --    2.46715   2.48407   2.52188   2.58809   2.59225
 Alpha virt. eigenvalues --    2.59561   2.63466   2.67225   2.67764   2.70132
 Alpha virt. eigenvalues --    2.72300   2.72958   2.77376   2.82758   2.86882
 Alpha virt. eigenvalues --    2.88202   2.91946   2.97988   3.04100   3.05409
 Alpha virt. eigenvalues --    3.24139   3.26890   3.31322   3.45389   3.65566
 Alpha virt. eigenvalues --    3.94809   4.26951   4.82157
          Condensed to atoms (all electrons):
               1          2          3          4          5          6
     1  C    7.546828  -1.330509   0.311035  -0.258246  -0.314878  -0.596399
     2  C   -1.330509   8.246370  -1.911800   0.141644   0.074773   0.244203
     3  C    0.311035  -1.911800   9.520741  -0.479872  -0.424995  -0.919818
     4  N   -0.258246   0.141644  -0.479872   7.444556   0.297378   0.125518
     5  B   -0.314878   0.074773  -0.424995   0.297378   5.262734   0.809888
     6  C   -0.596399   0.244203  -0.919818   0.125518   0.809888   6.571054
     7  C   -0.008217  -0.113096  -0.123754  -0.128242   0.685332  -0.115388
     8  C    0.129174  -0.117807   0.214631   0.089486  -0.386482  -0.006938
     9  C   -0.140470   0.153628  -0.300622  -0.045887   0.239226   0.072178
    10  C    0.011460  -0.028148  -0.181477   0.034326  -0.731141  -0.004258
    11  H   -0.849256   0.329804  -0.037380  -0.047068   0.082413   0.199812
    12  H    0.346112  -0.869205   0.351293  -0.033667  -0.018453  -0.129922
    13  H    0.079627   0.232531  -0.508306  -0.204211   0.091243   0.048004
    14  H    0.479115   0.027204   0.011445  -0.027151  -0.613109  -0.700352
    15  H    0.036231   0.000715   0.012670   0.048738  -0.295877   0.019690
    16  H    0.009273  -0.005606  -0.000885   0.003406   0.052348  -0.010024
    17  H    0.007050   0.000503   0.051416  -0.009814   0.041364  -0.017769
    18  H    0.014029  -0.015214   0.014295   0.012276   0.094346  -0.017689
               7          8          9         10         11         12
     1  C   -0.008217   0.129174  -0.140470   0.011460  -0.849256   0.346112
     2  C   -0.113096  -0.117807   0.153628  -0.028148   0.329804  -0.869205
     3  C   -0.123754   0.214631  -0.300622  -0.181477  -0.037380   0.351293
     4  N   -0.128242   0.089486  -0.045887   0.034326  -0.047068  -0.033667
     5  B    0.685332  -0.386482   0.239226  -0.731141   0.082413  -0.018453
     6  C   -0.115388  -0.006938   0.072178  -0.004258   0.199812  -0.129922
     7  C    6.970641  -0.369693   0.309010  -0.976492  -0.009983   0.015171
     8  C   -0.369693   7.187048  -1.291167   0.227186  -0.008360  -0.001315
     9  C    0.309010  -1.291167   7.205475  -0.649640   0.005139  -0.001193
    10  C   -0.976492   0.227186  -0.649640   8.155180  -0.009917  -0.002459
    11  H   -0.009983  -0.008360   0.005139  -0.009917   2.329879  -0.139057
    12  H    0.015171  -0.001315  -0.001193  -0.002459  -0.139057   2.216226
    13  H   -0.008668   0.005134  -0.039446  -0.027029  -0.005603  -0.105565
    14  H    0.037186  -0.026925   0.023133  -0.015039  -0.203298  -0.005935
    15  H   -0.871944   0.113257   0.045052   0.190428  -0.003798   0.001273
    16  H   -0.031351  -0.407675   0.226365  -0.026691  -0.000635   0.000087
    17  H   -0.031234   0.213187  -0.427555  -0.015236   0.001126  -0.001499
    18  H    0.313286  -0.070784   0.245095  -0.835159   0.000042  -0.000622
              13         14         15         16         17         18
     1  C    0.079627   0.479115   0.036231   0.009273   0.007050   0.014029
     2  C    0.232531   0.027204   0.000715  -0.005606   0.000503  -0.015214
     3  C   -0.508306   0.011445   0.012670  -0.000885   0.051416   0.014295
     4  N   -0.204211  -0.027151   0.048738   0.003406  -0.009814   0.012276
     5  B    0.091243  -0.613109  -0.295877   0.052348   0.041364   0.094346
     6  C    0.048004  -0.700352   0.019690  -0.010024  -0.017769  -0.017689
     7  C   -0.008668   0.037186  -0.871944  -0.031351  -0.031234   0.313286
     8  C    0.005134  -0.026925   0.113257  -0.407675   0.213187  -0.070784
     9  C   -0.039446   0.023133   0.045052   0.226365  -0.427555   0.245095
    10  C   -0.027029  -0.015039   0.190428  -0.026691  -0.015236  -0.835159
    11  H   -0.005603  -0.203298  -0.003798  -0.000635   0.001126   0.000042
    12  H   -0.105565  -0.005935   0.001273   0.000087  -0.001499  -0.000622
    13  H    2.077500  -0.006055   0.003639   0.000140   0.004235  -0.005631
    14  H   -0.006055   2.749724   0.021434   0.000480  -0.000609  -0.001237
    15  H    0.003639   0.021434   2.370453   0.010454  -0.005578  -0.042562
    16  H    0.000140   0.000480   0.010454   1.569668   0.021668  -0.004709
    17  H    0.004235  -0.000609  -0.005578   0.021668   1.536597   0.026665
    18  H   -0.005631  -0.001237  -0.042562  -0.004709   0.026665   1.791405
 Mulliken charges:
               1
     1  C    0.528043
     2  C    0.940009
     3  C    0.401382
     4  N    0.036829
     5  B    0.053888
     6  C    0.428209
     7  C    0.457437
     8  C    0.508041
     9  C    0.371679
    10  C    0.884107
    11  H   -0.633861
    12  H   -0.621271
    13  H   -0.631541
    14  H   -0.750010
    15  H   -0.654276
    16  H   -0.406315
    17  H   -0.394517
    18  H   -0.517832
 Sum of Mulliken charges =   0.00000
 Mulliken charges with hydrogens summed into heavy atoms:
               1
     1  C   -0.105817
     2  C    0.318738
     3  C   -0.230160
     4  N    0.036829
     5  B    0.053888
     6  C   -0.321801
     7  C   -0.196839
     8  C    0.101726
     9  C   -0.022838
    10  C    0.366274
 Electronic spatial extent (au):  <R**2>=           1263.5355
 Charge=              0.0000 electrons
 Dipole moment (field-independent basis, Debye):
    X=              0.4369    Y=             -1.1965    Z=              0.0658  Tot=              1.2755
 Quadrupole moment (field-independent basis, Debye-Ang):
   XX=            -56.1588   YY=            -53.6192   ZZ=            -59.8487
   XY=              0.7742   XZ=              0.5711   YZ=             -0.5924
 Traceless Quadrupole moment (field-independent basis, Debye-Ang):
   XX=              0.3834   YY=              2.9230   ZZ=             -3.3064
   XY=              0.7742   XZ=              0.5711   YZ=             -0.5924
 Octapole moment (field-independent basis, Debye-Ang**2):
  XXX=            -15.8581  YYY=            -11.0804  ZZZ=              3.0836  XYY=              0.4195
  XXY=              1.0634  XXZ=             -8.7401  XZZ=              9.7265  YZZ=             -2.2522
  YYZ=             -1.1836  XYZ=             -0.2404
 Hexadecapole moment (field-independent basis, Debye-Ang**3):
 XXXX=          -1192.9006 YYYY=           -402.1681 ZZZZ=           -160.9015 XXXY=             11.2662
 XXXZ=              4.5539 YYYX=              1.8230 YYYZ=             -3.0345 ZZZX=             -0.2221
 ZZZY=             -2.1033 XXYY=           -251.3898 XXZZ=           -228.0558 YYZZ=            -98.1871
 XXYZ=             -2.6717 YYXZ=             -1.7256 ZZXY=              0.5368
 N-N= 4.605808247810D+02 E-N=-1.823781510950D+03  KE= 3.866952218637D+02
 No NMR shielding tensors so no spin-rotation constants.
 Leave Link  601 at Thu Jun 11 17:51:01 2026, MaxMem= 12079595520 cpu:        18.7
 (Enter /local/gaussian-09.D01/g09/l9999.exe)

 Test job not archived.
 1\1\GINC-WUX33\SP\RwB97XD\Aug-CC-pVDZ\C8H8B1N1\BUEHLERM\11-Jun-2026\0\
 \#p wb97xD/aug-cc-pvdz NMR=CSGT IOp(10/93=1) SCF=(Tight,MaxCycle=512) 
 Int=UltraFine\\TEST\\0,1\C,0,-2.454287,0.629383,-0.254863\C,0,-2.33595
 6,-0.794037,-0.218233\C,0,-1.131676,-1.394128,0.066127\N,0,-0.089646,-
 0.576972,0.31126\B,0,-0.085129,0.851346,0.269807\C,0,-1.407109,1.50649
 9,-0.028895\C,0,1.507297,0.874389,0.57692\C,0,2.415517,0.62096,-0.6187
 86\C,0,2.262525,-0.712821,-0.622022\C,0,1.352173,-0.700178,0.595896\H,
 0,-3.44806,1.026744,-0.480897\H,0,-3.208605,-1.414589,-0.412882\H,0,-0
 .992598,-2.474593,0.11246\H,0,-1.614002,2.576008,-0.083617\H,0,1.92558
 5,1.394883,1.44504\H,0,2.950601,1.306854,-1.275634\H,0,2.587274,-1.512
 019,-1.286058\H,0,1.602077,-1.301607,1.476861\\Version=ES64L-G09RevD.0
 1\State=1-A\HF=-389.1237113\RMSD=5.474e-09\Dipole=0.1718932,-0.470744,
 0.0259054\Quadrupole=0.2850601,2.1731913,-2.4582514,0.5756083,0.424595
 1,-0.4404151\PG=C01 [X(C8H8B1N1)]\\@


 The arm of the moral universe is long, but it bends toward justice.
 -- Martin Luther King, Jr.
 Job cpu time:       0 days  0 hours 45 minutes 29.2 seconds.
 File lengths (MBytes):  RWF=     39 Int=      0 D2E=      0 Chk=      5 Scr=      1
 Normal termination of Gaussian 09 at Thu Jun 11 17:51:01 2026.
