[Molden Format]
[Atoms] Angs
 c       1                    6  2.425532239942e+00 -6.428947217342e-01  6.489172501371e-01
 c       2                    6  2.273859496442e+00  7.787072191744e-01  7.779775818893e-01
 c       3                    6  1.067505265043e+00  1.385179335171e+00  5.270789333759e-01
 n       4                    7 -2.376079661919e-02  6.381758096660e-01  9.493475044563e-02
 b       5                    5 -1.240934223329e-02 -8.312541448719e-01  2.997440901719e-02
 c       6                    6  1.344137776663e+00 -1.459046771423e+00  3.348401133542e-01
 c       7                    6 -1.335414542345e+00 -1.483477133921e+00 -3.919771525812e-01
 c       8                    6 -2.464400704562e+00 -6.840548742583e-01 -5.313214741196e-01
 c       9                    6 -2.318300080549e+00  7.387107800031e-01 -5.977967524273e-01
 c      10                    6 -1.079531845036e+00  1.326746841936e+00 -4.767538127575e-01
 h      11                    1  3.423637204077e+00 -1.063893330293e+00  8.022729813827e-01
 h      12                    1  3.118558063245e+00  1.418115808725e+00  1.047463362976e+00
 h      13                    1  8.903287427826e-01  2.457892543863e+00  6.570145737907e-01
 h      14                    1  1.515697824047e+00 -2.535423932003e+00  2.322101112049e-01
 h      15                    1 -1.422448016069e+00 -2.558785547493e+00 -5.832108880947e-01
 h      16                    1 -3.454352222268e+00 -1.110179206183e+00 -7.288126553889e-01
 h      17                    1 -3.162901206329e+00  1.381324985777e+00 -8.502437118686e-01
 h      18                    1 -7.857378562313e-01  2.244156337861e+00 -9.925676203362e-01
[GTO]
1
 s           8
      6.665000000000e+03      6.915839628130e-04
      1.000000000000e+03      5.325796152934e-03
      2.280000000000e+02      2.706072104203e-02
      6.471000000000e+01      1.016568461408e-01
      2.106000000000e+01      2.745748236174e-01
      7.495000000000e+00      4.482943189238e-01
      2.797000000000e+00      2.849026107152e-01
      5.215000000000e-01      1.519485920608e-02
 s           8
      6.665000000000e+03     -2.932696526865e-04
      1.000000000000e+03     -2.318035473975e-03
      2.280000000000e+02     -1.149978603857e-02
      6.471000000000e+01     -4.682672700979e-02
      2.106000000000e+01     -1.284661687505e-01
      7.495000000000e+00     -3.012662724629e-01
      2.797000000000e+00     -2.556307023301e-01
      5.215000000000e-01      1.093793361012e+00
 s           1
      1.596000000000e-01      1.000000000000e+00
 s           1
      4.690000000000e-02      1.000000000000e+00
 p           3
      9.439000000000e+00      5.697925159004e-02
      2.002000000000e+00      3.132072115007e-01
      5.456000000000e-01      7.603767417375e-01
 p           1
      1.517000000000e-01      1.000000000000e+00
 p           1
      4.041000000000e-02      1.000000000000e+00
 d           1
      5.500000000000e-01      1.000000000000e+00
 d           1
      1.510000000000e-01      1.000000000000e+00

2
 s           8
      6.665000000000e+03      6.915839628130e-04
      1.000000000000e+03      5.325796152934e-03
      2.280000000000e+02      2.706072104203e-02
      6.471000000000e+01      1.016568461408e-01
      2.106000000000e+01      2.745748236174e-01
      7.495000000000e+00      4.482943189238e-01
      2.797000000000e+00      2.849026107152e-01
      5.215000000000e-01      1.519485920608e-02
 s           8
      6.665000000000e+03     -2.932696526865e-04
      1.000000000000e+03     -2.318035473975e-03
      2.280000000000e+02     -1.149978603857e-02
      6.471000000000e+01     -4.682672700979e-02
      2.106000000000e+01     -1.284661687505e-01
      7.495000000000e+00     -3.012662724629e-01
      2.797000000000e+00     -2.556307023301e-01
      5.215000000000e-01      1.093793361012e+00
 s           1
      1.596000000000e-01      1.000000000000e+00
 s           1
      4.690000000000e-02      1.000000000000e+00
 p           3
      9.439000000000e+00      5.697925159004e-02
      2.002000000000e+00      3.132072115007e-01
      5.456000000000e-01      7.603767417375e-01
 p           1
      1.517000000000e-01      1.000000000000e+00
 p           1
      4.041000000000e-02      1.000000000000e+00
 d           1
      5.500000000000e-01      1.000000000000e+00
 d           1
      1.510000000000e-01      1.000000000000e+00

3
 s           8
      6.665000000000e+03      6.915839628130e-04
      1.000000000000e+03      5.325796152934e-03
      2.280000000000e+02      2.706072104203e-02
      6.471000000000e+01      1.016568461408e-01
      2.106000000000e+01      2.745748236174e-01
      7.495000000000e+00      4.482943189238e-01
      2.797000000000e+00      2.849026107152e-01
      5.215000000000e-01      1.519485920608e-02
 s           8
      6.665000000000e+03     -2.932696526865e-04
      1.000000000000e+03     -2.318035473975e-03
      2.280000000000e+02     -1.149978603857e-02
      6.471000000000e+01     -4.682672700979e-02
      2.106000000000e+01     -1.284661687505e-01
      7.495000000000e+00     -3.012662724629e-01
      2.797000000000e+00     -2.556307023301e-01
      5.215000000000e-01      1.093793361012e+00
 s           1
      1.596000000000e-01      1.000000000000e+00
 s           1
      4.690000000000e-02      1.000000000000e+00
 p           3
      9.439000000000e+00      5.697925159004e-02
      2.002000000000e+00      3.132072115007e-01
      5.456000000000e-01      7.603767417375e-01
 p           1
      1.517000000000e-01      1.000000000000e+00
 p           1
      4.041000000000e-02      1.000000000000e+00
 d           1
      5.500000000000e-01      1.000000000000e+00
 d           1
      1.510000000000e-01      1.000000000000e+00

4
 s           8
      9.046000000000e+03      6.996174134255e-04
      1.357000000000e+03      5.386054629929e-03
      3.093000000000e+02      2.739102118906e-02
      8.773000000000e+01      1.031505919820e-01
      2.856000000000e+01      2.785706633174e-01
      1.021000000000e+01      4.482948494541e-01
      3.838000000000e+00      2.780859283953e-01
      7.466000000000e-01      1.543156123327e-02
 s           8
      9.046000000000e+03     -3.049900959534e-04
      1.357000000000e+03     -2.408026378508e-03
      3.093000000000e+02     -1.194444872518e-02
      8.773000000000e+01     -4.892599290902e-02
      2.856000000000e+01     -1.344727247250e-01
      1.021000000000e+01     -3.151125777001e-01
      3.838000000000e+00     -2.428578325496e-01
      7.466000000000e-01      1.094382206854e+00
 s           1
      2.248000000000e-01      1.000000000000e+00
 s           1
      6.124000000000e-02      1.000000000000e+00
 p           3
      1.355000000000e+01      5.890567677213e-02
      2.917000000000e+00      3.204611067143e-01
      7.973000000000e-01      7.530420617921e-01
 p           1
      2.185000000000e-01      1.000000000000e+00
 p           1
      5.611000000000e-02      1.000000000000e+00
 d           1
      8.170000000000e-01      1.000000000000e+00
 d           1
      2.300000000000e-01      1.000000000000e+00

5
 s           8
      4.570000000000e+03      6.955544180306e-04
      6.859000000000e+02      5.349572988100e-03
      1.565000000000e+02      2.711662870523e-02
      4.447000000000e+01      1.013150961206e-01
      1.448000000000e+01      2.718808293065e-01
      5.131000000000e+00      4.481159306152e-01
      1.898000000000e+00      2.899372621010e-01
      3.329000000000e-01      1.431283099861e-02
 s           8
      4.570000000000e+03     -2.812802240142e-04
      6.859000000000e+02     -2.219887811105e-03
      1.565000000000e+02     -1.101647150743e-02
      4.447000000000e+01     -4.434918985248e-02
      1.448000000000e+01     -1.209120479502e-01
      5.131000000000e+00     -2.807378995535e-01
      1.898000000000e+00     -2.660668087326e-01
      3.329000000000e-01      1.091784130514e+00
 s           1
      1.043000000000e-01      1.000000000000e+00
 s           1
      3.105000000000e-02      1.000000000000e+00
 p           3
      6.001000000000e+00      5.416586334015e-02
      1.241000000000e+00      3.023798901809e-01
      3.364000000000e-01      7.712922165481e-01
 p           1
      9.538000000000e-02      1.000000000000e+00
 p           1
      2.378000000000e-02      1.000000000000e+00
 d           1
      3.430000000000e-01      1.000000000000e+00
 d           1
      9.040000000000e-02      1.000000000000e+00

6
 s           8
      6.665000000000e+03      6.915839628130e-04
      1.000000000000e+03      5.325796152934e-03
      2.280000000000e+02      2.706072104203e-02
      6.471000000000e+01      1.016568461408e-01
      2.106000000000e+01      2.745748236174e-01
      7.495000000000e+00      4.482943189238e-01
      2.797000000000e+00      2.849026107152e-01
      5.215000000000e-01      1.519485920608e-02
 s           8
      6.665000000000e+03     -2.932696526865e-04
      1.000000000000e+03     -2.318035473975e-03
      2.280000000000e+02     -1.149978603857e-02
      6.471000000000e+01     -4.682672700979e-02
      2.106000000000e+01     -1.284661687505e-01
      7.495000000000e+00     -3.012662724629e-01
      2.797000000000e+00     -2.556307023301e-01
      5.215000000000e-01      1.093793361012e+00
 s           1
      1.596000000000e-01      1.000000000000e+00
 s           1
      4.690000000000e-02      1.000000000000e+00
 p           3
      9.439000000000e+00      5.697925159004e-02
      2.002000000000e+00      3.132072115007e-01
      5.456000000000e-01      7.603767417375e-01
 p           1
      1.517000000000e-01      1.000000000000e+00
 p           1
      4.041000000000e-02      1.000000000000e+00
 d           1
      5.500000000000e-01      1.000000000000e+00
 d           1
      1.510000000000e-01      1.000000000000e+00

7
 s           8
      6.665000000000e+03      6.915839628130e-04
      1.000000000000e+03      5.325796152934e-03
      2.280000000000e+02      2.706072104203e-02
      6.471000000000e+01      1.016568461408e-01
      2.106000000000e+01      2.745748236174e-01
      7.495000000000e+00      4.482943189238e-01
      2.797000000000e+00      2.849026107152e-01
      5.215000000000e-01      1.519485920608e-02
 s           8
      6.665000000000e+03     -2.932696526865e-04
      1.000000000000e+03     -2.318035473975e-03
      2.280000000000e+02     -1.149978603857e-02
      6.471000000000e+01     -4.682672700979e-02
      2.106000000000e+01     -1.284661687505e-01
      7.495000000000e+00     -3.012662724629e-01
      2.797000000000e+00     -2.556307023301e-01
      5.215000000000e-01      1.093793361012e+00
 s           1
      1.596000000000e-01      1.000000000000e+00
 s           1
      4.690000000000e-02      1.000000000000e+00
 p           3
      9.439000000000e+00      5.697925159004e-02
      2.002000000000e+00      3.132072115007e-01
      5.456000000000e-01      7.603767417375e-01
 p           1
      1.517000000000e-01      1.000000000000e+00
 p           1
      4.041000000000e-02      1.000000000000e+00
 d           1
      5.500000000000e-01      1.000000000000e+00
 d           1
      1.510000000000e-01      1.000000000000e+00

8
 s           8
      6.665000000000e+03      6.915839628130e-04
      1.000000000000e+03      5.325796152934e-03
      2.280000000000e+02      2.706072104203e-02
      6.471000000000e+01      1.016568461408e-01
      2.106000000000e+01      2.745748236174e-01
      7.495000000000e+00      4.482943189238e-01
      2.797000000000e+00      2.849026107152e-01
      5.215000000000e-01      1.519485920608e-02
 s           8
      6.665000000000e+03     -2.932696526865e-04
      1.000000000000e+03     -2.318035473975e-03
      2.280000000000e+02     -1.149978603857e-02
      6.471000000000e+01     -4.682672700979e-02
      2.106000000000e+01     -1.284661687505e-01
      7.495000000000e+00     -3.012662724629e-01
      2.797000000000e+00     -2.556307023301e-01
      5.215000000000e-01      1.093793361012e+00
 s           1
      1.596000000000e-01      1.000000000000e+00
 s           1
      4.690000000000e-02      1.000000000000e+00
 p           3
      9.439000000000e+00      5.697925159004e-02
      2.002000000000e+00      3.132072115007e-01
      5.456000000000e-01      7.603767417375e-01
 p           1
      1.517000000000e-01      1.000000000000e+00
 p           1
      4.041000000000e-02      1.000000000000e+00
 d           1
      5.500000000000e-01      1.000000000000e+00
 d           1
      1.510000000000e-01      1.000000000000e+00

9
 s           8
      6.665000000000e+03      6.915839628130e-04
      1.000000000000e+03      5.325796152934e-03
      2.280000000000e+02      2.706072104203e-02
      6.471000000000e+01      1.016568461408e-01
      2.106000000000e+01      2.745748236174e-01
      7.495000000000e+00      4.482943189238e-01
      2.797000000000e+00      2.849026107152e-01
      5.215000000000e-01      1.519485920608e-02
 s           8
      6.665000000000e+03     -2.932696526865e-04
      1.000000000000e+03     -2.318035473975e-03
      2.280000000000e+02     -1.149978603857e-02
      6.471000000000e+01     -4.682672700979e-02
      2.106000000000e+01     -1.284661687505e-01
      7.495000000000e+00     -3.012662724629e-01
      2.797000000000e+00     -2.556307023301e-01
      5.215000000000e-01      1.093793361012e+00
 s           1
      1.596000000000e-01      1.000000000000e+00
 s           1
      4.690000000000e-02      1.000000000000e+00
 p           3
      9.439000000000e+00      5.697925159004e-02
      2.002000000000e+00      3.132072115007e-01
      5.456000000000e-01      7.603767417375e-01
 p           1
      1.517000000000e-01      1.000000000000e+00
 p           1
      4.041000000000e-02      1.000000000000e+00
 d           1
      5.500000000000e-01      1.000000000000e+00
 d           1
      1.510000000000e-01      1.000000000000e+00

10
 s           8
      6.665000000000e+03      6.915839628130e-04
      1.000000000000e+03      5.325796152934e-03
      2.280000000000e+02      2.706072104203e-02
      6.471000000000e+01      1.016568461408e-01
      2.106000000000e+01      2.745748236174e-01
      7.495000000000e+00      4.482943189238e-01
      2.797000000000e+00      2.849026107152e-01
      5.215000000000e-01      1.519485920608e-02
 s           8
      6.665000000000e+03     -2.932696526865e-04
      1.000000000000e+03     -2.318035473975e-03
      2.280000000000e+02     -1.149978603857e-02
      6.471000000000e+01     -4.682672700979e-02
      2.106000000000e+01     -1.284661687505e-01
      7.495000000000e+00     -3.012662724629e-01
      2.797000000000e+00     -2.556307023301e-01
      5.215000000000e-01      1.093793361012e+00
 s           1
      1.596000000000e-01      1.000000000000e+00
 s           1
      4.690000000000e-02      1.000000000000e+00
 p           3
      9.439000000000e+00      5.697925159004e-02
      2.002000000000e+00      3.132072115007e-01
      5.456000000000e-01      7.603767417375e-01
 p           1
      1.517000000000e-01      1.000000000000e+00
 p           1
      4.041000000000e-02      1.000000000000e+00
 d           1
      5.500000000000e-01      1.000000000000e+00
 d           1
      1.510000000000e-01      1.000000000000e+00

11
 s           3
      1.301000000000e+01      3.349872639000e-02
      1.962000000000e+00      2.348008011741e-01
      4.446000000000e-01      8.136829578829e-01
 s           1
      1.220000000000e-01      1.000000000000e+00
 s           1
      2.974000000000e-02      1.000000000000e+00
 p           1
      7.270000000000e-01      1.000000000000e+00
 p           1
      1.410000000000e-01      1.000000000000e+00

12
 s           3
      1.301000000000e+01      3.349872639000e-02
      1.962000000000e+00      2.348008011741e-01
      4.446000000000e-01      8.136829578829e-01
 s           1
      1.220000000000e-01      1.000000000000e+00
 s           1
      2.974000000000e-02      1.000000000000e+00
 p           1
      7.270000000000e-01      1.000000000000e+00
 p           1
      1.410000000000e-01      1.000000000000e+00

13
 s           3
      1.301000000000e+01      3.349872639000e-02
      1.962000000000e+00      2.348008011741e-01
      4.446000000000e-01      8.136829578829e-01
 s           1
      1.220000000000e-01      1.000000000000e+00
 s           1
      2.974000000000e-02      1.000000000000e+00
 p           1
      7.270000000000e-01      1.000000000000e+00
 p           1
      1.410000000000e-01      1.000000000000e+00

14
 s           3
      1.301000000000e+01      3.349872639000e-02
      1.962000000000e+00      2.348008011741e-01
      4.446000000000e-01      8.136829578829e-01
 s           1
      1.220000000000e-01      1.000000000000e+00
 s           1
      2.974000000000e-02      1.000000000000e+00
 p           1
      7.270000000000e-01      1.000000000000e+00
 p           1
      1.410000000000e-01      1.000000000000e+00

15
 s           3
      1.301000000000e+01      3.349872639000e-02
      1.962000000000e+00      2.348008011741e-01
      4.446000000000e-01      8.136829578829e-01
 s           1
      1.220000000000e-01      1.000000000000e+00
 s           1
      2.974000000000e-02      1.000000000000e+00
 p           1
      7.270000000000e-01      1.000000000000e+00
 p           1
      1.410000000000e-01      1.000000000000e+00

16
 s           3
      1.301000000000e+01      3.349872639000e-02
      1.962000000000e+00      2.348008011741e-01
      4.446000000000e-01      8.136829578829e-01
 s           1
      1.220000000000e-01      1.000000000000e+00
 s           1
      2.974000000000e-02      1.000000000000e+00
 p           1
      7.270000000000e-01      1.000000000000e+00
 p           1
      1.410000000000e-01      1.000000000000e+00

17
 s           3
      1.301000000000e+01      3.349872639000e-02
      1.962000000000e+00      2.348008011741e-01
      4.446000000000e-01      8.136829578829e-01
 s           1
      1.220000000000e-01      1.000000000000e+00
 s           1
      2.974000000000e-02      1.000000000000e+00
 p           1
      7.270000000000e-01      1.000000000000e+00
 p           1
      1.410000000000e-01      1.000000000000e+00

18
 s           3
      1.301000000000e+01      3.349872639000e-02
      1.962000000000e+00      2.348008011741e-01
      4.446000000000e-01      8.136829578829e-01
 s           1
      1.220000000000e-01      1.000000000000e+00
 s           1
      2.974000000000e-02      1.000000000000e+00
 p           1
      7.270000000000e-01      1.000000000000e+00
 p           1
      1.410000000000e-01      1.000000000000e+00


[5D]
[7F]
[9G]
[MO]
 Ene=  -15.632226
 Spin=  Alpha
 Occup=    2.000000
   1     0.0000798218132295
   2     0.0001412134431693
   3    -0.0056678504849456
   4    -0.0054773716358788
   5    -0.0000176581746804
   6    -0.0000073652805202
   7     0.0000104701010107
   8     0.0011749204136216
   9    -0.0060016258421082
  10    -0.0004811272269643
  11     0.0029906755841765
  12     0.0032820681872960
  13     0.0011611322722960
  14    -0.0000004931895348
  15     0.0000002440769928
  16    -0.0000123813970362
  17     0.0000226436190036
  18    -0.0000124385245823
  19     0.0002277232016518
  20     0.0003807410756500
  21     0.0002494732171458
  22     0.0005476279607484
  23     0.0013669240907150
  24    -0.0000011577766243
  25     0.0000174514470434
  26    -0.0070465363812154
  27     0.0144941855861757
  28    -0.0001034859027435
  29     0.0000387567295149
  30    -0.0000157606008130
  31     0.0046550477051821
  32    -0.0086323565331973
  33     0.0007679598264772
  34    -0.0055566779184244
  35     0.0024309203781208
  36    -0.0012729342239549
  37     0.0000027288056159
  38     0.0000314083728548
  39    -0.0000174394461372
  40     0.0000907330544040
  41     0.0000097890483052
  42    -0.0006761472284459
  43    -0.0004088977710070
  44     0.0010830458706833
  45    -0.0026886444047312
  46     0.0017540981964720
  47    -0.0001867106183395
  48    -0.0002878482365223
  49     0.0003324927803322
  50    -0.0287249486664070
  51     0.0002921762988421
  52     0.0001827099988421
  53     0.0001448448520517
  54     0.0130628577122142
  55     0.0029331840934363
  56     0.0037587467024587
  57    -0.0030867190472583
  58     0.0052772869308632
  59     0.0001910429185861
  60     0.0000871845980173
  61     0.0000516402319291
  62     0.0000161677769633
  63     0.0001234690982820
  64     0.0002000060892195
  65     0.0005633461013854
  66    -0.0012253182950468
  67    -0.0017562683162481
  68     0.0013669479562280
  69    -0.0056509605232208
  70    -1.0031010455774976
  71    -0.0054682329390905
  72     0.0279696489955181
  73     0.0209047496910786
  74    -0.0000522268137736
  75    -0.0008960826919990
  76     0.0001983948838917
  77     0.0001429472356044
  78     0.0053014132974126
  79    -0.0003978677175659
  80     0.0011730254431254
  81     0.0038847261261441
  82     0.0002780371584254
  83     0.0001472896320254
  84    -0.0001821719905906
  85     0.0000030670537989
  86    -0.0000082588726109
  87    -0.0000035082920710
  88    -0.0004203108235291
  89     0.0014400751557438
  90     0.0000888806648226
  91     0.0014631258267715
  92     0.0000329111509316
  93     0.0000618799493721
  94     0.0000575443371548
  95     0.0007229671538494
  96     0.0039527691458421
  97     0.0000250425806435
  98    -0.0001445230770434
  99     0.0000398931246642
 100    -0.0008216193043819
 101     0.0027986375501032
 102    -0.0002422708330829
 103     0.0000804144305560
 104     0.0012284959418976
 105     0.0001007355055388
 106     0.0000416509254703
 107    -0.0000676839728587
 108     0.0000245131299707
 109    -0.0001513528178125
 110    -0.0000076841560732
 111    -0.0003050075545725
 112    -0.0000132414545267
 113     0.0002534297729326
 114    -0.0019973025972358
 115     0.0003853341634524
 116     0.0000098744893501
 117     0.0000376209193830
 118    -0.0009074654908499
 119     0.0090530485044007
 120    -0.0000333849573063
 121     0.0000500657993609
 122     0.0000032763530010
 123    -0.0016267969998770
 124    -0.0003176291962622
 125    -0.0003344163898322
 126     0.0024350222272728
 127     0.0015295327858649
 128     0.0005336282113488
 129    -0.0000382714281631
 130     0.0000049456789658
 131    -0.0000126835040475
 132    -0.0000300068705361
 133    -0.0000530995387543
 134     0.0001776820439975
 135    -0.0001498585790357
 136     0.0001396832715544
 137    -0.0006285882590134
 138    -0.0000182140313490
 139    -0.0000085592929364
 140    -0.0000137266383797
 141    -0.0008109249781794
 142     0.0053013267471154
 143     0.0000045841382836
 144     0.0000274805767068
 145     0.0000021174832993
 146     0.0012463060462342
 147     0.0001119797548407
 148     0.0001762248208045
 149    -0.0007243252520444
 150     0.0008089620287637
 151     0.0002265762378050
 152    -0.0000302777414214
 153     0.0000090790023213
 154     0.0000255685613892
 155    -0.0000243481109468
 156     0.0000405158294961
 157    -0.0000023295423205
 158    -0.0000988225502036
 159    -0.0000234841529140
 160    -0.0009073091100849
 161    -0.0001151691689005
 162     0.0000780077695769
 163     0.0001407782305984
 164    -0.0044745918841450
 165    -0.0011277937064801
 166     0.0000090219351501
 167     0.0000058999711801
 168     0.0000175135269566
 169    -0.0018154109647298
 170    -0.0052604077146530
 171    -0.0006082333124316
 172    -0.0016149288343008
 173     0.0020399343820250
 174    -0.0005082967561502
 175     0.0000061661584201
 176     0.0000040661118766
 177     0.0000192538370726
 178     0.0000248547228692
 179     0.0000108637903690
 180     0.0001747115644248
 181     0.0000736853468046
 182    -0.0004940093608846
 183     0.0003047667134256
 184    -0.0015602484402232
 185     0.0000007405730733
 186     0.0000214921796415
 187    -0.0058662335566723
 188     0.0102918049201618
 189     0.0000923381929470
 190     0.0000336317001003
 191     0.0000385545260706
 192    -0.0029860833075552
 193    -0.0081341201576673
 194     0.0002038147210169
 195     0.0037056915883327
 196     0.0021452401656316
 197     0.0007132920937710
 198    -0.0000098429563588
 199     0.0000441348752268
 200     0.0000528016494327
 201     0.0000776678646792
 202     0.0000106710096930
 203    -0.0003612571469036
 204     0.0000261048246845
 205    -0.0012355804105967
 206    -0.0015779774177375
 207    -0.0021550357732974
 208    -0.0001709059854877
 209    -0.0002507081439796
 210    -0.0020971532600529
 211    -0.0217873481408594
 212    -0.0002965172004486
 213     0.0001910472040998
 214    -0.0001087855956867
 215    -0.0121357021336363
 216     0.0036297052261718
 217    -0.0039801103531906
 218     0.0025142716829600
 219     0.0033732658251680
 220    -0.0012967279438575
 221     0.0000519943514013
 222     0.0001092973214949
 223     0.0000647202944861
 224     0.0000578887116325
 225    -0.0002132141583994
 226     0.0001133047197002
 227    -0.0019859490730945
 228     0.0018686212620837
 229     0.0020668898574341
 230     0.0042259546879212
 231     0.0000006825611448
 232    -0.0011096477224479
 233    -0.0003625758422879
 234     0.0000005152440849
 235     0.0000084817060415
 236    -0.0000039490899152
 237     0.0002663639983228
 238    -0.0004117548665324
 239    -0.0000580464892992
 240    -0.0000070371056385
 241     0.0014422974490477
 242     0.0009483230048197
 243    -0.0000332349967881
 244    -0.0000127303583915
 245    -0.0000167846989399
 246    -0.0005861757758519
 247    -0.0006480486087609
 248    -0.0002577339100764
 249     0.0003022363089720
 250    -0.0002058388564702
 251    -0.0023870419094458
 252    -0.0000287638499650
 253    -0.0001680663917524
 254    -0.0000464226828774
 255     0.0015722025181058
 256     0.0003442453893757
 257     0.0003971846909735
 258    -0.0000230696987560
 259    -0.0010609734642011
 260     0.0011536049515805
 261     0.0000026663992445
 262    -0.0000212989500556
 263     0.0000032078532292
 264     0.0003412406766515
 265    -0.0001284559265785
 266     0.0000745563833731
 267    -0.0000216370684217
 268    -0.0016502632167805
 269     0.0010714627689693
 270     0.0000049791722606
 271    -0.0000071561148946
 272    -0.0000022824679740
 273    -0.0004399268718385
 274    -0.0002707826770830
 275    -0.0002368857858828
 276    -0.0000053068227546
 277    -0.0012780648735382
 278     0.0000305335562173
 279    -0.0000077992890280
 280     0.0000032232810575
 281     0.0000039925196672
 282    -0.0003104925917155
 283    -0.0004716655608913
 284    -0.0000476289271568
 285     0.0000033915890359
 286     0.0011320917778713
 287     0.0004106299560702
 288     0.0000493724931564
 289    -0.0000078672963403
 290     0.0000218991346303
 291     0.0006627611690617
 292    -0.0004184616019220
 293     0.0002882551148893
 294     0.0003011014692612
 295     0.0008320042357177
 296    -0.0015682410901945
 297     0.0000087947187645
 298    -0.0001427985015737
 299     0.0001162260909576
 300    -0.0012419351170478
 301     0.0001711587478107
 302     0.0001612438129850
 Ene=  -11.290729
 Spin=  Alpha
 Occup=    2.000000
   1     0.0000291731345520
   2     0.0000511130677326
   3    -0.0032885676127052
   4    -0.0023958980723603
   5     0.0000002235360348
   6    -0.0000064429180262
   7     0.0000011211885053
   8     0.0012077789893894
   9     0.0026284677443172
  10     0.0001000180639781
  11    -0.0022796460491390
  12    -0.0042431481053879
  13    -0.0009869112846544
  14    -0.0000152456879034
  15     0.0000095735483586
  16    -0.0000258737948695
  17     0.0000246431179390
  18    -0.0000322066688186
  19     0.0002739140211608
  20     0.0000571452731459
  21     0.0000631631488582
  22    -0.0006951762691479
  23    -0.0010649503104853
  24     0.0001172738035540
  25     0.0001632601866605
  26     0.0009546389410880
  27    -0.0078745994109627
  28    -0.0000749989827499
  29     0.0000360083883586
  30    -0.0000259885517352
  31    -0.0004514454943690
  32     0.0014538456542660
  33     0.0016530909361948
  34     0.0040020652365708
  35    -0.0055208290585048
  36     0.0002499681137138
  37    -0.0000159863722228
  38    -0.0000300605996702
  39     0.0000166579494498
  40    -0.0000018200893372
  41     0.0000083928331210
  42    -0.0001760306694874
  43    -0.0010954224079346
  44     0.0001967556438425
  45    -0.0000119504240151
  46    -0.0006811460920145
  47     0.0024184250768333
  48     0.0005367538060901
  49     0.0021863856289093
  50     0.0159834818171634
  51    -0.0001471058994948
  52    -0.0000689503703595
  53     0.0000049407012300
  54    -0.0017720552564275
  55     0.0002433300481499
  56    -0.0012348586430986
  57     0.0070939099658719
  58    -0.0021627798519719
  59     0.0018270457057400
  60     0.0000980047993192
  61    -0.0000857380362034
  62    -0.0000133663679325
  63     0.0000040561265600
  64     0.0000080054156979
  65    -0.0002587647168384
  66    -0.0015638494147247
  67     0.0012733417464125
  68    -0.0006187636475659
  69     0.0009208448816072
  70    -0.0001926948438629
  71    -0.0007366677277215
  72     0.0036127402955042
  73    -0.0057650622751220
  74     0.0002609764939843
  75    -0.0001941778106603
  76     0.0003336845738646
  77    -0.0035991899093975
  78     0.0019685878263368
  79    -0.0015754997376385
  80    -0.0062018799706121
  81     0.0043764131010150
  82    -0.0019319255101934
  83    -0.0000819973041628
  84     0.0001123395182243
  85    -0.0000548524203814
  86    -0.0000025910838480
  87    -0.0000012231829743
  88    -0.0002132623637593
  89     0.0005882942492896
  90    -0.0008938742330439
  91     0.0003842632848260
  92    -0.0021232006385256
  93     0.0003132079594256
  94     0.0005122912532409
  95     0.0011763624825186
  96    -0.0049848773170785
  97    -0.0000391724526967