[Molden Format]
[Atoms] Angs
 c       1                    6  2.414466801519e+00 -6.197257282032e-01  6.343885834673e-01
 c       2                    6  2.260962935817e+00  7.959873709350e-01  8.119874810002e-01
 c       3                    6  1.049120433761e+00  1.405667511762e+00  5.858694144551e-01
 n       4                    7 -4.721635392449e-02  6.472644633928e-01  1.919904387557e-01
 b       5                    5 -3.445319491683e-02 -8.149992077801e-01  5.279615809539e-02
 c       6                    6  1.333809606729e+00 -1.433037718088e+00  3.116883393919e-01
 c       7                    6 -1.346712438958e+00 -1.474653270272e+00 -3.980779276064e-01
 c       8                    6 -2.488466409705e+00 -6.774039370420e-01 -5.106391673905e-01
 c       9                    6 -2.314540746920e+00  7.317850957216e-01 -6.028806047462e-01
 c      10                    6 -1.039224105733e+00  1.280394624622e+00 -5.342305550959e-01
 h      11                    1  3.413836088792e+00 -1.045324195561e+00  7.653839892443e-01
 h      12                    1  3.110134413487e+00  1.428509238315e+00  1.082576129815e+00
 h      13                    1  8.868017228680e-01  2.482333321305e+00  7.142604534568e-01
 h      14                    1  1.503524756513e+00 -2.505549411826e+00  1.874622514176e-01
 h      15                    1 -1.412964161363e+00 -2.546545789420e+00 -6.178373944959e-01
 h      16                    1 -3.491061467896e+00 -1.095469925132e+00 -6.607335431223e-01
 h      17                    1 -3.145876934568e+00  1.411838468334e+00 -7.850710024105e-01
 h      18                    1 -6.521409455026e-01  2.028929088939e+00 -1.228933044230e+00
[GTO]
1
 s           8
      6.665000000000e+03      6.915839628130e-04
      1.000000000000e+03      5.325796152934e-03
      2.280000000000e+02      2.706072104203e-02
      6.471000000000e+01      1.016568461408e-01
      2.106000000000e+01      2.745748236174e-01
      7.495000000000e+00      4.482943189238e-01
      2.797000000000e+00      2.849026107152e-01
      5.215000000000e-01      1.519485920608e-02
 s           8
      6.665000000000e+03     -2.932696526865e-04
      1.000000000000e+03     -2.318035473975e-03
      2.280000000000e+02     -1.149978603857e-02
      6.471000000000e+01     -4.682672700979e-02
      2.106000000000e+01     -1.284661687505e-01
      7.495000000000e+00     -3.012662724629e-01
      2.797000000000e+00     -2.556307023301e-01
      5.215000000000e-01      1.093793361012e+00
 s           1
      1.596000000000e-01      1.000000000000e+00
 s           1
      4.690000000000e-02      1.000000000000e+00
 p           3
      9.439000000000e+00      5.697925159004e-02
      2.002000000000e+00      3.132072115007e-01
      5.456000000000e-01      7.603767417375e-01
 p           1
      1.517000000000e-01      1.000000000000e+00
 p           1
      4.041000000000e-02      1.000000000000e+00
 d           1
      5.500000000000e-01      1.000000000000e+00
 d           1
      1.510000000000e-01      1.000000000000e+00

2
 s           8
      6.665000000000e+03      6.915839628130e-04
      1.000000000000e+03      5.325796152934e-03
      2.280000000000e+02      2.706072104203e-02
      6.471000000000e+01      1.016568461408e-01
      2.106000000000e+01      2.745748236174e-01
      7.495000000000e+00      4.482943189238e-01
      2.797000000000e+00      2.849026107152e-01
      5.215000000000e-01      1.519485920608e-02
 s           8
      6.665000000000e+03     -2.932696526865e-04
      1.000000000000e+03     -2.318035473975e-03
      2.280000000000e+02     -1.149978603857e-02
      6.471000000000e+01     -4.682672700979e-02
      2.106000000000e+01     -1.284661687505e-01
      7.495000000000e+00     -3.012662724629e-01
      2.797000000000e+00     -2.556307023301e-01
      5.215000000000e-01      1.093793361012e+00
 s           1
      1.596000000000e-01      1.000000000000e+00
 s           1
      4.690000000000e-02      1.000000000000e+00
 p           3
      9.439000000000e+00      5.697925159004e-02
      2.002000000000e+00      3.132072115007e-01
      5.456000000000e-01      7.603767417375e-01
 p           1
      1.517000000000e-01      1.000000000000e+00
 p           1
      4.041000000000e-02      1.000000000000e+00
 d           1
      5.500000000000e-01      1.000000000000e+00
 d           1
      1.510000000000e-01      1.000000000000e+00

3
 s           8
      6.665000000000e+03      6.915839628130e-04
      1.000000000000e+03      5.325796152934e-03
      2.280000000000e+02      2.706072104203e-02
      6.471000000000e+01      1.016568461408e-01
      2.106000000000e+01      2.745748236174e-01
      7.495000000000e+00      4.482943189238e-01
      2.797000000000e+00      2.849026107152e-01
      5.215000000000e-01      1.519485920608e-02
 s           8
      6.665000000000e+03     -2.932696526865e-04
      1.000000000000e+03     -2.318035473975e-03
      2.280000000000e+02     -1.149978603857e-02
      6.471000000000e+01     -4.682672700979e-02
      2.106000000000e+01     -1.284661687505e-01
      7.495000000000e+00     -3.012662724629e-01
      2.797000000000e+00     -2.556307023301e-01
      5.215000000000e-01      1.093793361012e+00
 s           1
      1.596000000000e-01      1.000000000000e+00
 s           1
      4.690000000000e-02      1.000000000000e+00
 p           3
      9.439000000000e+00      5.697925159004e-02
      2.002000000000e+00      3.132072115007e-01
      5.456000000000e-01      7.603767417375e-01
 p           1
      1.517000000000e-01      1.000000000000e+00
 p           1
      4.041000000000e-02      1.000000000000e+00
 d           1
      5.500000000000e-01      1.000000000000e+00
 d           1
      1.510000000000e-01      1.000000000000e+00

4
 s           8
      9.046000000000e+03      6.996174134255e-04
      1.357000000000e+03      5.386054629929e-03
      3.093000000000e+02      2.739102118906e-02
      8.773000000000e+01      1.031505919820e-01
      2.856000000000e+01      2.785706633174e-01
      1.021000000000e+01      4.482948494541e-01
      3.838000000000e+00      2.780859283953e-01
      7.466000000000e-01      1.543156123327e-02
 s           8
      9.046000000000e+03     -3.049900959534e-04
      1.357000000000e+03     -2.408026378508e-03
      3.093000000000e+02     -1.194444872518e-02
      8.773000000000e+01     -4.892599290902e-02
      2.856000000000e+01     -1.344727247250e-01
      1.021000000000e+01     -3.151125777001e-01
      3.838000000000e+00     -2.428578325496e-01
      7.466000000000e-01      1.094382206854e+00
 s           1
      2.248000000000e-01      1.000000000000e+00
 s           1
      6.124000000000e-02      1.000000000000e+00
 p           3
      1.355000000000e+01      5.890567677213e-02
      2.917000000000e+00      3.204611067143e-01
      7.973000000000e-01      7.530420617921e-01
 p           1
      2.185000000000e-01      1.000000000000e+00
 p           1
      5.611000000000e-02      1.000000000000e+00
 d           1
      8.170000000000e-01      1.000000000000e+00
 d           1
      2.300000000000e-01      1.000000000000e+00

5
 s           8
      4.570000000000e+03      6.955544180306e-04
      6.859000000000e+02      5.349572988100e-03
      1.565000000000e+02      2.711662870523e-02
      4.447000000000e+01      1.013150961206e-01
      1.448000000000e+01      2.718808293065e-01
      5.131000000000e+00      4.481159306152e-01
      1.898000000000e+00      2.899372621010e-01
      3.329000000000e-01      1.431283099861e-02
 s           8
      4.570000000000e+03     -2.812802240142e-04
      6.859000000000e+02     -2.219887811105e-03
      1.565000000000e+02     -1.101647150743e-02
      4.447000000000e+01     -4.434918985248e-02
      1.448000000000e+01     -1.209120479502e-01
      5.131000000000e+00     -2.807378995535e-01
      1.898000000000e+00     -2.660668087326e-01
      3.329000000000e-01      1.091784130514e+00
 s           1
      1.043000000000e-01      1.000000000000e+00
 s           1
      3.105000000000e-02      1.000000000000e+00
 p           3
      6.001000000000e+00      5.416586334015e-02
      1.241000000000e+00      3.023798901809e-01
      3.364000000000e-01      7.712922165481e-01
 p           1
      9.538000000000e-02      1.000000000000e+00
 p           1
      2.378000000000e-02      1.000000000000e+00
 d           1
      3.430000000000e-01      1.000000000000e+00
 d           1
      9.040000000000e-02      1.000000000000e+00

6
 s           8
      6.665000000000e+03      6.915839628130e-04
      1.000000000000e+03      5.325796152934e-03
      2.280000000000e+02      2.706072104203e-02
      6.471000000000e+01      1.016568461408e-01
      2.106000000000e+01      2.745748236174e-01
      7.495000000000e+00      4.482943189238e-01
      2.797000000000e+00      2.849026107152e-01
      5.215000000000e-01      1.519485920608e-02
 s           8
      6.665000000000e+03     -2.932696526865e-04
      1.000000000000e+03     -2.318035473975e-03
      2.280000000000e+02     -1.149978603857e-02
      6.471000000000e+01     -4.682672700979e-02
      2.106000000000e+01     -1.284661687505e-01
      7.495000000000e+00     -3.012662724629e-01
      2.797000000000e+00     -2.556307023301e-01
      5.215000000000e-01      1.093793361012e+00
 s           1
      1.596000000000e-01      1.000000000000e+00
 s           1
      4.690000000000e-02      1.000000000000e+00
 p           3
      9.439000000000e+00      5.697925159004e-02
      2.002000000000e+00      3.132072115007e-01
      5.456000000000e-01      7.603767417375e-01
 p           1
      1.517000000000e-01      1.000000000000e+00
 p           1
      4.041000000000e-02      1.000000000000e+00
 d           1
      5.500000000000e-01      1.000000000000e+00
 d           1
      1.510000000000e-01      1.000000000000e+00

7
 s           8
      6.665000000000e+03      6.915839628130e-04
      1.000000000000e+03      5.325796152934e-03
      2.280000000000e+02      2.706072104203e-02
      6.471000000000e+01      1.016568461408e-01
      2.106000000000e+01      2.745748236174e-01
      7.495000000000e+00      4.482943189238e-01
      2.797000000000e+00      2.849026107152e-01
      5.215000000000e-01      1.519485920608e-02
 s           8
      6.665000000000e+03     -2.932696526865e-04
      1.000000000000e+03     -2.318035473975e-03
      2.280000000000e+02     -1.149978603857e-02
      6.471000000000e+01     -4.682672700979e-02
      2.106000000000e+01     -1.284661687505e-01
      7.495000000000e+00     -3.012662724629e-01
      2.797000000000e+00     -2.556307023301e-01
      5.215000000000e-01      1.093793361012e+00
 s           1
      1.596000000000e-01      1.000000000000e+00
 s           1
      4.690000000000e-02      1.000000000000e+00
 p           3
      9.439000000000e+00      5.697925159004e-02
      2.002000000000e+00      3.132072115007e-01
      5.456000000000e-01      7.603767417375e-01
 p           1
      1.517000000000e-01      1.000000000000e+00
 p           1
      4.041000000000e-02      1.000000000000e+00
 d           1
      5.500000000000e-01      1.000000000000e+00
 d           1
      1.510000000000e-01      1.000000000000e+00

8
 s           8
      6.665000000000e+03      6.915839628130e-04
      1.000000000000e+03      5.325796152934e-03
      2.280000000000e+02      2.706072104203e-02
      6.471000000000e+01      1.016568461408e-01
      2.106000000000e+01      2.745748236174e-01
      7.495000000000e+00      4.482943189238e-01
      2.797000000000e+00      2.849026107152e-01
      5.215000000000e-01      1.519485920608e-02
 s           8
      6.665000000000e+03     -2.932696526865e-04
      1.000000000000e+03     -2.318035473975e-03
      2.280000000000e+02     -1.149978603857e-02
      6.471000000000e+01     -4.682672700979e-02
      2.106000000000e+01     -1.284661687505e-01
      7.495000000000e+00     -3.012662724629e-01
      2.797000000000e+00     -2.556307023301e-01
      5.215000000000e-01      1.093793361012e+00
 s           1
      1.596000000000e-01      1.000000000000e+00
 s           1
      4.690000000000e-02      1.000000000000e+00
 p           3
      9.439000000000e+00      5.697925159004e-02
      2.002000000000e+00      3.132072115007e-01
      5.456000000000e-01      7.603767417375e-01
 p           1
      1.517000000000e-01      1.000000000000e+00
 p           1
      4.041000000000e-02      1.000000000000e+00
 d           1
      5.500000000000e-01      1.000000000000e+00
 d           1
      1.510000000000e-01      1.000000000000e+00

9
 s           8
      6.665000000000e+03      6.915839628130e-04
      1.000000000000e+03      5.325796152934e-03
      2.280000000000e+02      2.706072104203e-02
      6.471000000000e+01      1.016568461408e-01
      2.106000000000e+01      2.745748236174e-01
      7.495000000000e+00      4.482943189238e-01
      2.797000000000e+00      2.849026107152e-01
      5.215000000000e-01      1.519485920608e-02
 s           8
      6.665000000000e+03     -2.932696526865e-04
      1.000000000000e+03     -2.318035473975e-03
      2.280000000000e+02     -1.149978603857e-02
      6.471000000000e+01     -4.682672700979e-02
      2.106000000000e+01     -1.284661687505e-01
      7.495000000000e+00     -3.012662724629e-01
      2.797000000000e+00     -2.556307023301e-01
      5.215000000000e-01      1.093793361012e+00
 s           1
      1.596000000000e-01      1.000000000000e+00
 s           1
      4.690000000000e-02      1.000000000000e+00
 p           3
      9.439000000000e+00      5.697925159004e-02
      2.002000000000e+00      3.132072115007e-01
      5.456000000000e-01      7.603767417375e-01
 p           1
      1.517000000000e-01      1.000000000000e+00
 p           1
      4.041000000000e-02      1.000000000000e+00
 d           1
      5.500000000000e-01      1.000000000000e+00
 d           1
      1.510000000000e-01      1.000000000000e+00

10
 s           8
      6.665000000000e+03      6.915839628130e-04
      1.000000000000e+03      5.325796152934e-03
      2.280000000000e+02      2.706072104203e-02
      6.471000000000e+01      1.016568461408e-01
      2.106000000000e+01      2.745748236174e-01
      7.495000000000e+00      4.482943189238e-01
      2.797000000000e+00      2.849026107152e-01
      5.215000000000e-01      1.519485920608e-02
 s           8
      6.665000000000e+03     -2.932696526865e-04
      1.000000000000e+03     -2.318035473975e-03
      2.280000000000e+02     -1.149978603857e-02
      6.471000000000e+01     -4.682672700979e-02
      2.106000000000e+01     -1.284661687505e-01
      7.495000000000e+00     -3.012662724629e-01
      2.797000000000e+00     -2.556307023301e-01
      5.215000000000e-01      1.093793361012e+00
 s           1
      1.596000000000e-01      1.000000000000e+00
 s           1
      4.690000000000e-02      1.000000000000e+00
 p           3
      9.439000000000e+00      5.697925159004e-02
      2.002000000000e+00      3.132072115007e-01
      5.456000000000e-01      7.603767417375e-01
 p           1
      1.517000000000e-01      1.000000000000e+00
 p           1
      4.041000000000e-02      1.000000000000e+00
 d           1
      5.500000000000e-01      1.000000000000e+00
 d           1
      1.510000000000e-01      1.000000000000e+00

11
 s           3
      1.301000000000e+01      3.349872639000e-02
      1.962000000000e+00      2.348008011741e-01
      4.446000000000e-01      8.136829578829e-01
 s           1
      1.220000000000e-01      1.000000000000e+00
 s           1
      2.974000000000e-02      1.000000000000e+00
 p           1
      7.270000000000e-01      1.000000000000e+00
 p           1
      1.410000000000e-01      1.000000000000e+00

12
 s           3
      1.301000000000e+01      3.349872639000e-02
      1.962000000000e+00      2.348008011741e-01
      4.446000000000e-01      8.136829578829e-01
 s           1
      1.220000000000e-01      1.000000000000e+00
 s           1
      2.974000000000e-02      1.000000000000e+00
 p           1
      7.270000000000e-01      1.000000000000e+00
 p           1
      1.410000000000e-01      1.000000000000e+00

13
 s           3
      1.301000000000e+01      3.349872639000e-02
      1.962000000000e+00      2.348008011741e-01
      4.446000000000e-01      8.136829578829e-01
 s           1
      1.220000000000e-01      1.000000000000e+00
 s           1
      2.974000000000e-02      1.000000000000e+00
 p           1
      7.270000000000e-01      1.000000000000e+00
 p           1
      1.410000000000e-01      1.000000000000e+00

14
 s           3
      1.301000000000e+01      3.349872639000e-02
      1.962000000000e+00      2.348008011741e-01
      4.446000000000e-01      8.136829578829e-01
 s           1
      1.220000000000e-01      1.000000000000e+00
 s           1
      2.974000000000e-02      1.000000000000e+00
 p           1
      7.270000000000e-01      1.000000000000e+00
 p           1
      1.410000000000e-01      1.000000000000e+00

15
 s           3
      1.301000000000e+01      3.349872639000e-02
      1.962000000000e+00      2.348008011741e-01
      4.446000000000e-01      8.136829578829e-01
 s           1
      1.220000000000e-01      1.000000000000e+00
 s           1
      2.974000000000e-02      1.000000000000e+00
 p           1
      7.270000000000e-01      1.000000000000e+00
 p           1
      1.410000000000e-01      1.000000000000e+00

16
 s           3
      1.301000000000e+01      3.349872639000e-02
      1.962000000000e+00      2.348008011741e-01
      4.446000000000e-01      8.136829578829e-01
 s           1
      1.220000000000e-01      1.000000000000e+00
 s           1
      2.974000000000e-02      1.000000000000e+00
 p           1
      7.270000000000e-01      1.000000000000e+00
 p           1
      1.410000000000e-01      1.000000000000e+00

17
 s           3
      1.301000000000e+01      3.349872639000e-02
      1.962000000000e+00      2.348008011741e-01
      4.446000000000e-01      8.136829578829e-01
 s           1
      1.220000000000e-01      1.000000000000e+00
 s           1
      2.974000000000e-02      1.000000000000e+00
 p           1
      7.270000000000e-01      1.000000000000e+00
 p           1
      1.410000000000e-01      1.000000000000e+00

18
 s           3
      1.301000000000e+01      3.349872639000e-02
      1.962000000000e+00      2.348008011741e-01
      4.446000000000e-01      8.136829578829e-01
 s           1
      1.220000000000e-01      1.000000000000e+00
 s           1
      2.974000000000e-02      1.000000000000e+00
 p           1
      7.270000000000e-01      1.000000000000e+00
 p           1
      1.410000000000e-01      1.000000000000e+00


[5D]
[7F]
[9G]
[MO]
 Ene=  -15.626189
 Spin=  Alpha
 Occup=    2.000000
   1    -0.0000868647615686
   2    -0.0001547968787255
   3     0.0060098374152341
   4     0.0065258577851884
   5     0.0000195345397872
   6     0.0000077219287511
   7    -0.0000104872179878
   8    -0.0011104355856936
   9     0.0061758636968821
  10     0.0007469441366394
  11    -0.0033701965227889
  12    -0.0033356564650465
  13    -0.0012385055346041
  14     0.0000025074746590
  15     0.0000016590241909
  16     0.0000138279672433
  17    -0.0000244956787638
  18     0.0000167739303939
  19    -0.0002125303747787
  20    -0.0004130631411113
  21    -0.0001727781001450
  22    -0.0005301955986313
  23    -0.0013576422690663
  24    -0.0000102917691040
  25    -0.0000392401288165
  26     0.0077870674978526
  27    -0.0143818257643709
  28     0.0001089088839503
  29    -0.0000354435014554
  30    -0.0000028786428060
  31    -0.0052144291440141
  32     0.0089061324308130
  33    -0.0006389239905909
  34     0.0056211252593390
  35    -0.0024985183958382
  36     0.0010134564814705
  37    -0.0000084187423303
  38    -0.0000228327298843
  39     0.0000124821994697
  40    -0.0000897051257266
  41    -0.0000094501883484
  42     0.0006485253854230
  43     0.0003915754793824
  44    -0.0011581092285641
  45     0.0028734320777238
  46    -0.0017778811254108
  47     0.0002022508454703
  48     0.0003156668423060
  49    -0.0010049856151833
  50     0.0283206790395979
  51    -0.0002842300664159
  52    -0.0001740813227851
  53    -0.0001644657225992
  54    -0.0138290138867784
  55    -0.0028539968345652
  56    -0.0035808883255058
  57     0.0031167768898196
  58    -0.0051703494003722
  59    -0.0000867133660161
  60    -0.0000823488140257
  61    -0.0000473779679727
  62    -0.0000176383372570
  63    -0.0001225763663094
  64    -0.0001923562456463
  65    -0.0005646388394895
  66     0.0012433402250781
  67     0.0017062067569920
  68    -0.0012907762589612
  69     0.0059928937792422
  70     1.0031164219986664
  71     0.0055060988054555
  72    -0.0279827371742244
  73    -0.0205222742017254
  74     0.0001622059685402
  75     0.0008397771784896
  76    -0.0004493953959153
  77    -0.0006218021346063
  78    -0.0051484159022633
  79     0.0010435459517233
  80    -0.0016617789703861
  81    -0.0037754112724596
  82    -0.0000513136078358
  83    -0.0001150153068432
  84     0.0001879045051399
  85    -0.0000072826404440
  86    -0.0000013000067493
  87     0.0000229377520340
  88     0.0003133642280323
  89    -0.0015409824557663
  90    -0.0000873859214748
  91    -0.0012936017974038
  92    -0.0001730917906630
  93    -0.0000029617451108
  94     0.0000400658116224
  95    -0.0007938327148766
  96    -0.0041129819992749
  97    -0.0000313344075563
  98     0.0001880402377151
  99    -0.0000509219105263
 100     0.0013550473565047
 101    -0.0023810182006412
 102     0.0003252860277829
 103    -0.0002289858809139
 104    -0.0012218443435256
 105    -0.0000957209776590
 106    -0.0000584428461482
 107     0.0000692886895835
 108    -0.0000493560314048
 109     0.0001600750329030
 110     0.0000002486898708
 111     0.0001947288570634
 112    -0.0000471541316967
 113    -0.0004644587405435
 114     0.0018553873276780
 115    -0.0008315936763425
 116    -0.0000142925992671
 117    -0.0000484686882653
 118     0.0009058246234550
 119    -0.0097511069035512
 120     0.0000394035468590
 121    -0.0000572707531327
 122    -0.0000019946789583
 123     0.0017926491098911
 124     0.0002360435636422
 125     0.0003102865559754
 126    -0.0026550153601652
 127    -0.0016859102732937
 128    -0.0007184117349359
 129     0.0000427199096002
 130    -0.0000048368800482
 131     0.0000054457675501
 132     0.0000221666197410
 133     0.0000595082969551
 134    -0.0002023095170614
 135     0.0001724374702866
 136    -0.0000794813001056
 137     0.0006468003911215
 138     0.0000088386723949
 139     0.0000199604378634
 140     0.0000285903099093
 141     0.0004482028534798
 142    -0.0027231844665397
 143    -0.0000124827189829
 144    -0.0000213046208058
 145    -0.0000129005393989
 146    -0.0008534295124321
 147    -0.0005521437148229
 148    -0.0000957637959415
 149     0.0002755552996694
 150    -0.0003468099763224
 151    -0.0003274002366670
 152     0.0000280055736982
 153    -0.0000114337649313
 154    -0.0000278842073351
 155     0.0000243452587688
 156    -0.0000418982202733
 157     0.0000821494676390
 158     0.0000532097599984
 159     0.0000150147647065
 160     0.0009476834625291
 161     0.0000993664960807
 162    -0.0000565771990158
 163    -0.0001053013301327
 164     0.0024537388355129
 165    -0.0007627234805401
 166    -0.0000055088076176
 167    -0.0000183039904451
 168    -0.0000227342521021
 169     0.0019587837106986
 170     0.0035846489071392
 171     0.0007880130840887
 172     0.0006369827169242
 173    -0.0015240716720928
 174     0.0004009641586769
 175     0.0000014806581840
 176    -0.0000079767155052
 177    -0.0000205761976584
 178    -0.0000201257128583
 179    -0.0000129126199482
 180    -0.0002003886637413
 181    -0.0000060953692940
 182     0.0005502912234344
 183     0.0000513937423428
 184     0.0013474615264286
 185     0.0000006077373634
 186    -0.0000190088678771
 187     0.0044644163416652
 188    -0.0077348418651126
 189    -0.0000834791702830
 190    -0.0000222067953262
 191    -0.0000454798897564
 192     0.0013023812208378
 193     0.0057761181211768
 194    -0.0005946724227380
 195    -0.0026768474975035
 196    -0.0015651137090853
 197    -0.0006529434997509
 198     0.0000286456498628
 199    -0.0000616935330186
 200    -0.0000694247956662
 201    -0.0000789007451999
 202    -0.0000209908025112
 203     0.0000985579298328
 204    -0.0002015427434003
 205     0.0013082787091103
 206     0.0005141688988860
 207     0.0017698858682274
 208     0.0001418323231107
 209     0.0001976281828020
 210     0.0048702874801317
 211     0.0182566205574450
 212     0.0002826117944603
 213    -0.0001991489301190
 214     0.0001322220319528
 215     0.0097693415481314
 216    -0.0043745451018696
 217     0.0045070824294644
 218    -0.0019941263904538
 219    -0.0027919797968938
 220     0.0020364041474209
 221    -0.0000426585807211
 222    -0.0001501986471279
 223    -0.0000789929155008
 224     0.0000226038543590
 225     0.0002044519730090
 226     0.0004928210436536
 227     0.0023722460263396
 228    -0.0020722473460703
 229    -0.0020661459794540
 230    -0.0030102142817293
 231     0.0000028845659550
 232     0.0009397396000676
 233     0.0005277610921257
 234    -0.0000023534378778
 235    -0.0000089282463138
 236     0.0000020409020204
 237    -0.0002180175313420
 238     0.0003608693141094
 239     0.0000845022416719
 240     0.0000037920865839
 241    -0.0014362966745500
 242    -0.0008979012906938
 243     0.0000349311885281
 244     0.0000157039833328
 245     0.0000179207802166
 246     0.0005768487259014
 247     0.0006671188640507
 248     0.0002809551667039
 249    -0.0002845215923880
 250     0.0004323771877363
 251     0.0022416837764795
 252     0.0000375619326720
 253     0.0001672781254733
 254     0.0000496815873578
 255    -0.0015798133363822
 256    -0.0004308846586195
 257    -0.0004313451370337
 258     0.0000247957380108
 259     0.0006889690320907
 260    -0.0011299984969045
 261    -0.0000061177419106
 262     0.0000203874928971
 263    -0.0000010421591235
 264    -0.0002895231682258
 265     0.0000195851870215
 266    -0.0000185618832580
 267     0.0000245560191144
 268     0.0014878787815508
 269    -0.0009042656573846
 270    -0.0000123807548111
 271     0.0000008600010460
 272     0.0000004513980743
 273     0.0003970756053262
 274     0.0002074855470724
 275     0.0002604713708668
 276     0.0000060844109423
 277     0.0011291973125267
 278    -0.0002727257522928
 279     0.0000175268861334
 280     0.0000004997075687
 281    -0.0000061062038861
 282     0.0003300135175900
 283     0.0004235106519648
 284     0.0000463430534078
 285    -0.0000115785437203
 286    -0.0008794734789937
 287    -0.0002509125757228
 288    -0.0000380591419947
 289    -0.0000005603378772
 290    -0.0000273464266761
 291    -0.0006266042537097
 292     0.0001620670946336
 293    -0.0003118008323849
 294    -0.0002927392344821
 295    -0.0003075329483582
 296     0.0016074384639666
 297     0.0000021893550833
 298     0.0001217706947574
 299    -0.0001551912008116
 300     0.0011614744980203
 301    -0.0002608240496942
 302    -0.0000704001164099
 Ene=  -11.293488
 Spin=  Alpha
 Occup=    2.000000
   1     0.0000258292714239
   2     0.0000423704114720
   3    -0.0026745714293891
   4    -0.0021289702071934
   5     0.0000099672702719
   6     0.0000028790143565
   7     0.0000064295865496
   8     0.0002049519059811
   9     0.0004809398758963
  10    -0.0001566225353991
  11    -0.0021750983564602
  12    -0.0036580990577515
  13    -0.0010161403515574
  14    -0.0000149580905197
  15    -0.0000006640659099
  16    -0.0000296770918042
  17     0.0000284779856148
  18    -0.0000315726752983
  19     0.0002934688905408
  20     0.0001707678758627
  21     0.0001588585665331
  22    -0.0002736410265646
  23    -0.0006090637748520
  24     0.0000988242834027
  25     0.0001496344104325
  26    -0.0014538051469529
  27    -0.0090298493155030
  28    -0.0000387630404509
  29     0.0000242529871550
  30    -0.0000177240574454
  31     0.0016241891049900
  32    -0.0005470735948537
  33     0.0021158235432738
  34     0.0041749218091338
  35    -0.0052319361219918
  36     0.0001602768030834
  37    -0.0000118067853097
  38    -0.0000517587258759
  39     0.0000197577481411
  40    -0.0000167689641465
  41    -0.0000034404229770
  42    -0.0001565998286516
  43    -0.0012529725815543
  44     0.0005205458616677
  45    -0.0006036299630966
  46    -0.0003604580631428
  47     0.0012169545449710
  48     0.0003288305366120
  49     0.0036341067334748
  50     0.0148217774568347
  51    -0.0001283266068098
  52    -0.0000466244172365
  53     0.0000288621169299
  54     0.0015554669371139
  55    -0.0008602032077136
  56    -0.0005125756662575
  57     0.0072944159069039
  58    -0.0018658545818318
  59     0.0018115034828453
  60     0.0000629259883990
  61    -0.0000943314578931
  62    -0.0000009910365234
  63    -0.0000224175939453
  64    -0.0000285901130413
  65    -0.0005958329443784
  66    -0.0018294594214273
  67     0.0010931927130305
  68    -0.0004150765888877
  69    -0.0002475118908716
  70    -0.0001771839838833
  71    -0.0006991056830546
  72     0.0036394499438153
  73    -0.0067540637577260
  74     0.0001842969662732
  75    -0.0001763188909082
  76     0.0004220578439137
  77    -0.0025182127058200
  78     0.0019021084490573
  79    -0.0015055435219830
  80    -0.0028492545188682
  81     0.0021014287942062
  82    -0.0005976259907683
  83    -0.0000637871775616
  84     0.0001224780968531
  85    -0.0000715768582139
  86    -0.0000028078650767
  87     0.0000003471448887
  88     0.0001442583805633
  89     0.0007410193800012
  90    -0.0008211918584137
  91     0.0002766866749693
  92    -0.0013684096127711
  93     0.0003311204386703
  94     0.0005306287499003
  95     0.0000504922479501
  96    -0.0044014734496942
  97    -0.0000475453580119