[Molden Format]
[Atoms] Angs
 c       1                    6  2.359309753534e+00 -5.497030549964e-01  6.138365344637e-01
 c       2                    6  2.220006065576e+00  8.772715965182e-01  8.438887387928e-01
 c       3                    6  1.005156009533e+00  1.508509445922e+00  7.255309173896e-01
 n       4                    7 -1.724146048614e-01  7.640687371836e-01  5.086810515743e-01
 b       5                    5 -1.265367317420e-01 -7.048350213124e-01  2.421975148166e-01
 c       6                    6  1.286739505937e+00 -1.356426357980e+00  3.201849996135e-01
 c       7                    6 -1.350288948326e+00 -1.295107131016e+00 -5.023508452557e-01
 c       8                    6 -2.651573638556e+00 -6.100043525332e-01 -5.763024843090e-01
 c       9                    6 -2.372984911323e+00  7.347743499561e-01 -5.931458691062e-01
 c      10                    6 -8.891403865026e-01  7.633033962530e-01 -7.129210807998e-01
 h      11                    1  3.370701134537e+00 -9.726231825706e-01  6.739267435108e-01
 h      12                    1  3.097937266036e+00  1.481851661630e+00  1.086345060437e+00
 h      13                    1  8.808987592935e-01  2.585796510872e+00  8.607743743830e-01
 h      14                    1  1.457137716937e+00 -2.417116846936e+00  9.977557510805e-02
 h      15                    1 -1.170890795260e+00 -2.229101046699e+00 -1.056263797336e+00
 h      16                    1 -3.628544161636e+00 -1.110881314891e+00 -5.370799265066e-01
 h      17                    1 -2.971903791914e+00  1.615800141379e+00 -3.376633996037e-01
 h      18                    1 -3.436082412632e-01  9.144224692207e-01 -1.659414107171e+00
[GTO]
1
 s           8
      6.665000000000e+03      6.915839628130e-04
      1.000000000000e+03      5.325796152934e-03
      2.280000000000e+02      2.706072104203e-02
      6.471000000000e+01      1.016568461408e-01
      2.106000000000e+01      2.745748236174e-01
      7.495000000000e+00      4.482943189238e-01
      2.797000000000e+00      2.849026107152e-01
      5.215000000000e-01      1.519485920608e-02
 s           8
      6.665000000000e+03     -2.932696526865e-04
      1.000000000000e+03     -2.318035473975e-03
      2.280000000000e+02     -1.149978603857e-02
      6.471000000000e+01     -4.682672700979e-02
      2.106000000000e+01     -1.284661687505e-01
      7.495000000000e+00     -3.012662724629e-01
      2.797000000000e+00     -2.556307023301e-01
      5.215000000000e-01      1.093793361012e+00
 s           1
      1.596000000000e-01      1.000000000000e+00
 s           1
      4.690000000000e-02      1.000000000000e+00
 p           3
      9.439000000000e+00      5.697925159004e-02
      2.002000000000e+00      3.132072115007e-01
      5.456000000000e-01      7.603767417375e-01
 p           1
      1.517000000000e-01      1.000000000000e+00
 p           1
      4.041000000000e-02      1.000000000000e+00
 d           1
      5.500000000000e-01      1.000000000000e+00
 d           1
      1.510000000000e-01      1.000000000000e+00

2
 s           8
      6.665000000000e+03      6.915839628130e-04
      1.000000000000e+03      5.325796152934e-03
      2.280000000000e+02      2.706072104203e-02
      6.471000000000e+01      1.016568461408e-01
      2.106000000000e+01      2.745748236174e-01
      7.495000000000e+00      4.482943189238e-01
      2.797000000000e+00      2.849026107152e-01
      5.215000000000e-01      1.519485920608e-02
 s           8
      6.665000000000e+03     -2.932696526865e-04
      1.000000000000e+03     -2.318035473975e-03
      2.280000000000e+02     -1.149978603857e-02
      6.471000000000e+01     -4.682672700979e-02
      2.106000000000e+01     -1.284661687505e-01
      7.495000000000e+00     -3.012662724629e-01
      2.797000000000e+00     -2.556307023301e-01
      5.215000000000e-01      1.093793361012e+00
 s           1
      1.596000000000e-01      1.000000000000e+00
 s           1
      4.690000000000e-02      1.000000000000e+00
 p           3
      9.439000000000e+00      5.697925159004e-02
      2.002000000000e+00      3.132072115007e-01
      5.456000000000e-01      7.603767417375e-01
 p           1
      1.517000000000e-01      1.000000000000e+00
 p           1
      4.041000000000e-02      1.000000000000e+00
 d           1
      5.500000000000e-01      1.000000000000e+00
 d           1
      1.510000000000e-01      1.000000000000e+00

3
 s           8
      6.665000000000e+03      6.915839628130e-04
      1.000000000000e+03      5.325796152934e-03
      2.280000000000e+02      2.706072104203e-02
      6.471000000000e+01      1.016568461408e-01
      2.106000000000e+01      2.745748236174e-01
      7.495000000000e+00      4.482943189238e-01
      2.797000000000e+00      2.849026107152e-01
      5.215000000000e-01      1.519485920608e-02
 s           8
      6.665000000000e+03     -2.932696526865e-04
      1.000000000000e+03     -2.318035473975e-03
      2.280000000000e+02     -1.149978603857e-02
      6.471000000000e+01     -4.682672700979e-02
      2.106000000000e+01     -1.284661687505e-01
      7.495000000000e+00     -3.012662724629e-01
      2.797000000000e+00     -2.556307023301e-01
      5.215000000000e-01      1.093793361012e+00
 s           1
      1.596000000000e-01      1.000000000000e+00
 s           1
      4.690000000000e-02      1.000000000000e+00
 p           3
      9.439000000000e+00      5.697925159004e-02
      2.002000000000e+00      3.132072115007e-01
      5.456000000000e-01      7.603767417375e-01
 p           1
      1.517000000000e-01      1.000000000000e+00
 p           1
      4.041000000000e-02      1.000000000000e+00
 d           1
      5.500000000000e-01      1.000000000000e+00
 d           1
      1.510000000000e-01      1.000000000000e+00

4
 s           8
      9.046000000000e+03      6.996174134255e-04
      1.357000000000e+03      5.386054629929e-03
      3.093000000000e+02      2.739102118906e-02
      8.773000000000e+01      1.031505919820e-01
      2.856000000000e+01      2.785706633174e-01
      1.021000000000e+01      4.482948494541e-01
      3.838000000000e+00      2.780859283953e-01
      7.466000000000e-01      1.543156123327e-02
 s           8
      9.046000000000e+03     -3.049900959534e-04
      1.357000000000e+03     -2.408026378508e-03
      3.093000000000e+02     -1.194444872518e-02
      8.773000000000e+01     -4.892599290902e-02
      2.856000000000e+01     -1.344727247250e-01
      1.021000000000e+01     -3.151125777001e-01
      3.838000000000e+00     -2.428578325496e-01
      7.466000000000e-01      1.094382206854e+00
 s           1
      2.248000000000e-01      1.000000000000e+00
 s           1
      6.124000000000e-02      1.000000000000e+00
 p           3
      1.355000000000e+01      5.890567677213e-02
      2.917000000000e+00      3.204611067143e-01
      7.973000000000e-01      7.530420617921e-01
 p           1
      2.185000000000e-01      1.000000000000e+00
 p           1
      5.611000000000e-02      1.000000000000e+00
 d           1
      8.170000000000e-01      1.000000000000e+00
 d           1
      2.300000000000e-01      1.000000000000e+00

5
 s           8
      4.570000000000e+03      6.955544180306e-04
      6.859000000000e+02      5.349572988100e-03
      1.565000000000e+02      2.711662870523e-02
      4.447000000000e+01      1.013150961206e-01
      1.448000000000e+01      2.718808293065e-01
      5.131000000000e+00      4.481159306152e-01
      1.898000000000e+00      2.899372621010e-01
      3.329000000000e-01      1.431283099861e-02
 s           8
      4.570000000000e+03     -2.812802240142e-04
      6.859000000000e+02     -2.219887811105e-03
      1.565000000000e+02     -1.101647150743e-02
      4.447000000000e+01     -4.434918985248e-02
      1.448000000000e+01     -1.209120479502e-01
      5.131000000000e+00     -2.807378995535e-01
      1.898000000000e+00     -2.660668087326e-01
      3.329000000000e-01      1.091784130514e+00
 s           1
      1.043000000000e-01      1.000000000000e+00
 s           1
      3.105000000000e-02      1.000000000000e+00
 p           3
      6.001000000000e+00      5.416586334015e-02
      1.241000000000e+00      3.023798901809e-01
      3.364000000000e-01      7.712922165481e-01
 p           1
      9.538000000000e-02      1.000000000000e+00
 p           1
      2.378000000000e-02      1.000000000000e+00
 d           1
      3.430000000000e-01      1.000000000000e+00
 d           1
      9.040000000000e-02      1.000000000000e+00

6
 s           8
      6.665000000000e+03      6.915839628130e-04
      1.000000000000e+03      5.325796152934e-03
      2.280000000000e+02      2.706072104203e-02
      6.471000000000e+01      1.016568461408e-01
      2.106000000000e+01      2.745748236174e-01
      7.495000000000e+00      4.482943189238e-01
      2.797000000000e+00      2.849026107152e-01
      5.215000000000e-01      1.519485920608e-02
 s           8
      6.665000000000e+03     -2.932696526865e-04
      1.000000000000e+03     -2.318035473975e-03
      2.280000000000e+02     -1.149978603857e-02
      6.471000000000e+01     -4.682672700979e-02
      2.106000000000e+01     -1.284661687505e-01
      7.495000000000e+00     -3.012662724629e-01
      2.797000000000e+00     -2.556307023301e-01
      5.215000000000e-01      1.093793361012e+00
 s           1
      1.596000000000e-01      1.000000000000e+00
 s           1
      4.690000000000e-02      1.000000000000e+00
 p           3
      9.439000000000e+00      5.697925159004e-02
      2.002000000000e+00      3.132072115007e-01
      5.456000000000e-01      7.603767417375e-01
 p           1
      1.517000000000e-01      1.000000000000e+00
 p           1
      4.041000000000e-02      1.000000000000e+00
 d           1
      5.500000000000e-01      1.000000000000e+00
 d           1
      1.510000000000e-01      1.000000000000e+00

7
 s           8
      6.665000000000e+03      6.915839628130e-04
      1.000000000000e+03      5.325796152934e-03
      2.280000000000e+02      2.706072104203e-02
      6.471000000000e+01      1.016568461408e-01
      2.106000000000e+01      2.745748236174e-01
      7.495000000000e+00      4.482943189238e-01
      2.797000000000e+00      2.849026107152e-01
      5.215000000000e-01      1.519485920608e-02
 s           8
      6.665000000000e+03     -2.932696526865e-04
      1.000000000000e+03     -2.318035473975e-03
      2.280000000000e+02     -1.149978603857e-02
      6.471000000000e+01     -4.682672700979e-02
      2.106000000000e+01     -1.284661687505e-01
      7.495000000000e+00     -3.012662724629e-01
      2.797000000000e+00     -2.556307023301e-01
      5.215000000000e-01      1.093793361012e+00
 s           1
      1.596000000000e-01      1.000000000000e+00
 s           1
      4.690000000000e-02      1.000000000000e+00
 p           3
      9.439000000000e+00      5.697925159004e-02
      2.002000000000e+00      3.132072115007e-01
      5.456000000000e-01      7.603767417375e-01
 p           1
      1.517000000000e-01      1.000000000000e+00
 p           1
      4.041000000000e-02      1.000000000000e+00
 d           1
      5.500000000000e-01      1.000000000000e+00
 d           1
      1.510000000000e-01      1.000000000000e+00

8
 s           8
      6.665000000000e+03      6.915839628130e-04
      1.000000000000e+03      5.325796152934e-03
      2.280000000000e+02      2.706072104203e-02
      6.471000000000e+01      1.016568461408e-01
      2.106000000000e+01      2.745748236174e-01
      7.495000000000e+00      4.482943189238e-01
      2.797000000000e+00      2.849026107152e-01
      5.215000000000e-01      1.519485920608e-02
 s           8
      6.665000000000e+03     -2.932696526865e-04
      1.000000000000e+03     -2.318035473975e-03
      2.280000000000e+02     -1.149978603857e-02
      6.471000000000e+01     -4.682672700979e-02
      2.106000000000e+01     -1.284661687505e-01
      7.495000000000e+00     -3.012662724629e-01
      2.797000000000e+00     -2.556307023301e-01
      5.215000000000e-01      1.093793361012e+00
 s           1
      1.596000000000e-01      1.000000000000e+00
 s           1
      4.690000000000e-02      1.000000000000e+00
 p           3
      9.439000000000e+00      5.697925159004e-02
      2.002000000000e+00      3.132072115007e-01
      5.456000000000e-01      7.603767417375e-01
 p           1
      1.517000000000e-01      1.000000000000e+00
 p           1
      4.041000000000e-02      1.000000000000e+00
 d           1
      5.500000000000e-01      1.000000000000e+00
 d           1
      1.510000000000e-01      1.000000000000e+00

9
 s           8
      6.665000000000e+03      6.915839628130e-04
      1.000000000000e+03      5.325796152934e-03
      2.280000000000e+02      2.706072104203e-02
      6.471000000000e+01      1.016568461408e-01
      2.106000000000e+01      2.745748236174e-01
      7.495000000000e+00      4.482943189238e-01
      2.797000000000e+00      2.849026107152e-01
      5.215000000000e-01      1.519485920608e-02
 s           8
      6.665000000000e+03     -2.932696526865e-04
      1.000000000000e+03     -2.318035473975e-03
      2.280000000000e+02     -1.149978603857e-02
      6.471000000000e+01     -4.682672700979e-02
      2.106000000000e+01     -1.284661687505e-01
      7.495000000000e+00     -3.012662724629e-01
      2.797000000000e+00     -2.556307023301e-01
      5.215000000000e-01      1.093793361012e+00
 s           1
      1.596000000000e-01      1.000000000000e+00
 s           1
      4.690000000000e-02      1.000000000000e+00
 p           3
      9.439000000000e+00      5.697925159004e-02
      2.002000000000e+00      3.132072115007e-01
      5.456000000000e-01      7.603767417375e-01
 p           1
      1.517000000000e-01      1.000000000000e+00
 p           1
      4.041000000000e-02      1.000000000000e+00
 d           1
      5.500000000000e-01      1.000000000000e+00
 d           1
      1.510000000000e-01      1.000000000000e+00

10
 s           8
      6.665000000000e+03      6.915839628130e-04
      1.000000000000e+03      5.325796152934e-03
      2.280000000000e+02      2.706072104203e-02
      6.471000000000e+01      1.016568461408e-01
      2.106000000000e+01      2.745748236174e-01
      7.495000000000e+00      4.482943189238e-01
      2.797000000000e+00      2.849026107152e-01
      5.215000000000e-01      1.519485920608e-02
 s           8
      6.665000000000e+03     -2.932696526865e-04
      1.000000000000e+03     -2.318035473975e-03
      2.280000000000e+02     -1.149978603857e-02
      6.471000000000e+01     -4.682672700979e-02
      2.106000000000e+01     -1.284661687505e-01
      7.495000000000e+00     -3.012662724629e-01
      2.797000000000e+00     -2.556307023301e-01
      5.215000000000e-01      1.093793361012e+00
 s           1
      1.596000000000e-01      1.000000000000e+00
 s           1
      4.690000000000e-02      1.000000000000e+00
 p           3
      9.439000000000e+00      5.697925159004e-02
      2.002000000000e+00      3.132072115007e-01
      5.456000000000e-01      7.603767417375e-01
 p           1
      1.517000000000e-01      1.000000000000e+00
 p           1
      4.041000000000e-02      1.000000000000e+00
 d           1
      5.500000000000e-01      1.000000000000e+00
 d           1
      1.510000000000e-01      1.000000000000e+00

11
 s           3
      1.301000000000e+01      3.349872639000e-02
      1.962000000000e+00      2.348008011741e-01
      4.446000000000e-01      8.136829578829e-01
 s           1
      1.220000000000e-01      1.000000000000e+00
 s           1
      2.974000000000e-02      1.000000000000e+00
 p           1
      7.270000000000e-01      1.000000000000e+00
 p           1
      1.410000000000e-01      1.000000000000e+00

12
 s           3
      1.301000000000e+01      3.349872639000e-02
      1.962000000000e+00      2.348008011741e-01
      4.446000000000e-01      8.136829578829e-01
 s           1
      1.220000000000e-01      1.000000000000e+00
 s           1
      2.974000000000e-02      1.000000000000e+00
 p           1
      7.270000000000e-01      1.000000000000e+00
 p           1
      1.410000000000e-01      1.000000000000e+00

13
 s           3
      1.301000000000e+01      3.349872639000e-02
      1.962000000000e+00      2.348008011741e-01
      4.446000000000e-01      8.136829578829e-01
 s           1
      1.220000000000e-01      1.000000000000e+00
 s           1
      2.974000000000e-02      1.000000000000e+00
 p           1
      7.270000000000e-01      1.000000000000e+00
 p           1
      1.410000000000e-01      1.000000000000e+00

14
 s           3
      1.301000000000e+01      3.349872639000e-02
      1.962000000000e+00      2.348008011741e-01
      4.446000000000e-01      8.136829578829e-01
 s           1
      1.220000000000e-01      1.000000000000e+00
 s           1
      2.974000000000e-02      1.000000000000e+00
 p           1
      7.270000000000e-01      1.000000000000e+00
 p           1
      1.410000000000e-01      1.000000000000e+00

15
 s           3
      1.301000000000e+01      3.349872639000e-02
      1.962000000000e+00      2.348008011741e-01
      4.446000000000e-01      8.136829578829e-01
 s           1
      1.220000000000e-01      1.000000000000e+00
 s           1
      2.974000000000e-02      1.000000000000e+00
 p           1
      7.270000000000e-01      1.000000000000e+00
 p           1
      1.410000000000e-01      1.000000000000e+00

16
 s           3
      1.301000000000e+01      3.349872639000e-02
      1.962000000000e+00      2.348008011741e-01
      4.446000000000e-01      8.136829578829e-01
 s           1
      1.220000000000e-01      1.000000000000e+00
 s           1
      2.974000000000e-02      1.000000000000e+00
 p           1
      7.270000000000e-01      1.000000000000e+00
 p           1
      1.410000000000e-01      1.000000000000e+00

17
 s           3
      1.301000000000e+01      3.349872639000e-02
      1.962000000000e+00      2.348008011741e-01
      4.446000000000e-01      8.136829578829e-01
 s           1
      1.220000000000e-01      1.000000000000e+00
 s           1
      2.974000000000e-02      1.000000000000e+00
 p           1
      7.270000000000e-01      1.000000000000e+00
 p           1
      1.410000000000e-01      1.000000000000e+00

18
 s           3
      1.301000000000e+01      3.349872639000e-02
      1.962000000000e+00      2.348008011741e-01
      4.446000000000e-01      8.136829578829e-01
 s           1
      1.220000000000e-01      1.000000000000e+00
 s           1
      2.974000000000e-02      1.000000000000e+00
 p           1
      7.270000000000e-01      1.000000000000e+00
 p           1
      1.410000000000e-01      1.000000000000e+00


[5D]
[7F]
[9G]
[MO]
 Ene=  -15.599516
 Spin=  Alpha
 Occup=    2.000000
   1     0.0000741736258513
   2     0.0001345933455676
   3    -0.0050787043843631
   4    -0.0069577159800088
   5    -0.0000048695360581
   6    -0.0000020239773566
   7    -0.0000127932481515
   8     0.0010840857808685
   9    -0.0077499661626955
  10    -0.0012813827550963
  11     0.0033245894190886
  12     0.0029668846569657
  13     0.0010932501225993
  14     0.0000021618312816
  15     0.0000005390603348
  16    -0.0000045563995133
  17     0.0000241395506322
  18     0.0000081102805832
  19     0.0000728249947280
  20     0.0005525552191324
  21     0.0002505388785454
  22     0.0006329248708133
  23     0.0025504272039538
  24    -0.0000287243466339
  25    -0.0000224064434250
  26    -0.0077449905040216
  27     0.0132274818695915
  28    -0.0000863194831013
  29     0.0000407042675465
  30     0.0000071800853201
  31     0.0049235411829727
  32    -0.0108504663898524
  33    -0.0007789357497233
  34    -0.0048373043829791
  35     0.0022421089169177
  36    -0.0005369253783284
  37    -0.0000077912757040
  38     0.0000280592757889
  39     0.0000099219349099
  40     0.0001004609185675
  41     0.0000139626567800
  42    -0.0004296778986159
  43     0.0002702294262856
  44     0.0010489563272021
  45    -0.0024960960382127
  46     0.0033587060362050
  47    -0.0001820037222874
  48    -0.0002896621408344
  49     0.0031100954373051
  50    -0.0257141189992189
  51     0.0002825705819671
  52     0.0001525036982494
  53     0.0000800117718806
  54     0.0147997690547717
  55     0.0027349812587724
  56     0.0024003814380006
  57    -0.0024067909549182
  58     0.0047036834540586
  59     0.0004267448701535
  60     0.0000474115353045
  61     0.0000250409471681
  62    -0.0000079266428905
  63     0.0001022446652473
  64     0.0001515911867552
  65     0.0006726737829028
  66    -0.0003593445211316
  67    -0.0013029219399272
  68     0.0021491260783010
  69    -0.0057787980779298
  70    -1.0031877326787892
  71    -0.0055481563869444
  72     0.0286060911252391
  73     0.0187741539148380
  74    -0.0006443449160703
  75    -0.0001077274339888
  76     0.0012587685559840
  77     0.0020143441447125
  78     0.0010929399996656
  79    -0.0050198601935569
  80     0.0038827443194748
  81     0.0010401917662335
  82    -0.0009239291039789
  83    -0.0000050677902387
  84    -0.0000839498980736
  85    -0.0000557688836560
  86    -0.0000323201332114
  87    -0.0001000226961238
  88     0.0004964413883528
  89     0.0015220099465656
  90     0.0005695737411200
  91     0.0009657268703234
  92     0.0009707438012224
  93    -0.0002700078268338
  94    -0.0004985054842414
  95    -0.0037346873560088
  96     0.0022921767798160
  97     0.0000049064761005
  98    -0.0004212889061456
  99    -0.0000315136862784
 100    -0.0002925260346598
 101     0.0017339754956791
 102     0.0008695101701228
 103     0.0008190711181687
 104     0.0006679702927598
 105     0.0004230542163466
 106     0.0002376517551910
 107     0.0000005316699213
 108     0.0000022393219218
 109    -0.0000679759478756
 110    -0.0001011220049726
 111    -0.0004658067421636
 112    -0.0002789486956469
 113     0.0001961356273590
 114    -0.0013121432571095
 115     0.0002343620797365
 116    -0.0000282177289791
 117    -0.0000241544018559
 118    -0.0032107189269753
 119     0.0090728116862637
 120    -0.0000274672220189
 121     0.0000325522380547
 122    -0.0000006684926705
 123    -0.0034782908851311
 124    -0.0004067970226839
 125    -0.0006022956226174
 126     0.0024066294293285
 127     0.0010019115446017
 128     0.0004549247297536
 129    -0.0000636597759223
 130    -0.0000100778996203
 131     0.0000013242334662
 132    -0.0000534073745460
 133    -0.0000928611012893
 134     0.0000362303797792
 135    -0.0000794757606807
 136     0.0000598710270087
 137    -0.0009572757922226
 138    -0.0004316613963732
 139    -0.0001308618403702
 140    -0.0001845383163502
 141     0.0005362610237493
 142     0.0024098405779606
 143     0.0000276370770334
 144     0.0000108368827556
 145     0.0000354473363813
 146     0.0023549902889555
 147     0.0016262712226192
 148     0.0012714973017233
 149    -0.0007373181091965
 150     0.0005644550342290
 151     0.0004491736910224
 152    -0.0000382184796580
 153     0.0000587274796478
 154     0.0000447503709755
 155    -0.0000864587758303
 156     0.0000938998753336
 157    -0.0000290336354220
 158     0.0002196191924812
 159     0.0005133065059881
 160    -0.0007020714408886
 161     0.0008744105247307
 162    -0.0000581535931300
 163    -0.0000926869761812
 164     0.0033041853392117
 165    -0.0000346094345818
 166    -0.0000166208855435
 167     0.0000310688371180
 168     0.0000002689691508
 169     0.0003886672694234
 170    -0.0005115493685136
 171    -0.0003270117796980
 172    -0.0002621446404616
 173     0.0010346559691215
 174     0.0000041902264483
 175    -0.0000436789543108
 176     0.0000300732402215
 177     0.0000161575034556
 178    -0.0000135636282962
 179    -0.0000235573594300
 180    -0.0000437051326899
 181    -0.0001787186198115
 182    -0.0002503148397096
 183    -0.0001087741300129
 184    -0.0006274700469175
 185    -0.0000221801794108
 186    -0.0000105966936997
 187    -0.0025983683383785
 188     0.0050393425725512
 189     0.0000482581330047
 190    -0.0000106717087821
 191     0.0000338749099394
 192    -0.0000273806706656
 193     0.0002297397145246
 194     0.0003318913772772
 195     0.0020194878721875
 196     0.0004618690750311
 197     0.0002191622438800
 198    -0.0000941297562765
 199     0.0000771909247713
 200     0.0000043905258977
 201     0.0001500014945687
 202    -0.0000493964475019
 203     0.0004447594387998
 204    -0.0000716874513376
 205    -0.0002993868274418
 206     0.0005149695621481
 207    -0.0006850187524536
 208     0.0000322960788733
 209     0.0000522667833124
 210    -0.0103077529159376
 211    -0.0097966834085240
 212    -0.0002502942739384
 213    -0.0000839753579871
 214    -0.0003480597243845
 215    -0.0049309618105769
 216     0.0021832386196369
 217    -0.0088135599202995
 218     0.0024822773937030
 219    -0.0000920283831479
 220    -0.0023067280585482
 221     0.0000256323310721
 222     0.0001450624214800
 223    -0.0000091862383506
 224    -0.0002546992979410
 225    -0.0000209505094419
 226    -0.0030421307070500
 227    -0.0033998862210704
 228     0.0013113886379217
 229     0.0012882614039796
 230    -0.0000351959234137
 231    -0.0000184132210061
 232    -0.0001201975320105
 233    -0.0006213205238100
 234     0.0000037740646525
 235    -0.0000042183735466
 236     0.0000019089391859
 237    -0.0000692242540521
 238    -0.0004423841586654
 239    -0.0001137325117990
 240    -0.0000547020769396
 241     0.0002366995712529
 242     0.0005829154313722
 243    -0.0000510553550197
 244    -0.0000135066037112
 245    -0.0000168320717484
 246    -0.0004232191931227
 247    -0.0005340221461375
 248    -0.0001917350541861
 249     0.0002421136255885
 250     0.0008510674328393
 251    -0.0018644827301421
 252    -0.0000383306542811
 253    -0.0001119081778438
 254    -0.0000192490988287
 255     0.0014774716204401
 256     0.0002185508355270
 257     0.0002880139534479
 258    -0.0000777929420003
 259    -0.0012349015664912
 260     0.0004235523439136
 261     0.0000096781042999
 262    -0.0000204911189360
 263    -0.0000103252805047
 264     0.0002951214040042
 265    -0.0000692543681657
 266    -0.0000718114616624
 267    -0.0000292864894665
 268     0.0007570156161766
 269     0.0011295144255107
 270     0.0000316537447528
 271     0.0000044450284032
 272    -0.0000075103249375
 273     0.0002219388379133
 274     0.0004348621424424
 275     0.0000414736622380
 276    -0.0000223300640875
 277     0.0000043497680998
 278     0.0003628318787406
 279    -0.0000205334533383
 280    -0.0000063416219203
 281     0.0000072666110195
 282    -0.0000574035204711
 283    -0.0000957463943259
 284    -0.0001210740216783
 285     0.0000304354229100
 286    -0.0009271907533980
 287     0.0004727737586214
 288    -0.0000207046773242
 289     0.0000242172400932
 290     0.0000089677265350
 291    -0.0001006591004750
 292     0.0004168193870214
 293     0.0000659981483526
 294     0.0001883614717874
 295    -0.0023660779251747
 296    -0.0012273822540305
 297    -0.0000348711758327
 298    -0.0000113455912969
 299     0.0002605557285080
 300    -0.0010774946418711
 301     0.0003863922976829
 302    -0.0007450749624636
 Ene=  -11.319484
 Spin=  Alpha
 Occup=    2.000000
   1     0.0000522674492296
   2     0.0000855156728126
   3    -0.0063854204102319
   4     0.0049105986185807
   5     0.0000338235511066
   6    -0.0000068511442842
   7     0.0000164529209380
   8     0.0007723882631732
   9    -0.0056000944692238
  10    -0.0006348872409493
  11    -0.0012613025910075
  12    -0.0005235644945617
  13    -0.0002660432014687
  14     0.0000359024478097
  15    -0.0000183545530944
  16    -0.0000091489086044
  17     0.0000032623949172
  18     0.0000361219923659
  19    -0.0000300768271807
  20     0.0002195323042864
  21    -0.0002519526952089
  22     0.0009338872343310
  23     0.0008701665798269
  24    -0.0000603804504347
  25    -0.0000927044816348
  26    -0.0100760768135296
  27    -0.0061898648842855
  28     0.0001477265802627
  29    -0.0000296848682135
  30     0.0000339477579010
  31     0.0085092830463892
  32    -0.0085876678458348
  33     0.0001555187736745
  34     0.0019600293182174
  35     0.0001734906945714
  36     0.0001942554191935
  37     0.0000146968139491
  38    -0.0000223239865871
  39     0.0000123138171511
  40    -0.0000645654667246
  41     0.0000026299178663
  42    -0.0000592111788725
  43    -0.0001281188503498
  44     0.0008627243928684
  45    -0.0035473939276827
  46     0.0019896034300661
  47     0.0001701914169727
  48    -0.0000718596485269
  49     0.0132126606006404
  50     0.0030978347209167
  51    -0.0002349584552433
  52    -0.0000550537368687
  53    -0.0001382938873447
  54     0.0105628637058730
  55    -0.0041428224140559
  56     0.0010742675474081
  57     0.0018236611339583
  58    -0.0021072753856956
  59     0.0004055366143355
  60    -0.0000778478188246
  61     0.0000034859269381
  62     0.0000688651625934
  63    -0.0001177706540643
  64    -0.0001042513213421
  65    -0.0006639765783560
  66    -0.0001579470550978
  67    -0.0008259901845005
  68     0.0008429506699749
  69    -0.0051097204834551
  70    -0.0001704112789573
  71    -0.0006781228979672
  72     0.0038434088477967
  73     0.0015981834791769
  74     0.0003258310119265
  75    -0.0001445414647204
  76     0.0001331046186873
  77     0.0016421223741681
  78     0.0008783573318743
  79    -0.0008844121696425
  80     0.0033218115766694
  81     0.0013846942117830
  82    -0.0012462237927997
  83     0.0000137385578417
  84     0.0001322342513902
  85     0.0000357770018466
  86     0.0000896301544457
  87     0.0000704344813817
  88     0.0015307333813405
  89     0.0003865428977326
  90    -0.0000147663325956
  91    -0.0004410057421114
  92    -0.0005151701946506
  93    -0.0000162810775698
  94    -0.0000809083029549
  95    -0.0025231489437371
  96     0.0003319790626975
  97     0.0000094293190467