 Entering Gaussian System, Link 0=g16
 Initial command:
 /local/gaussian-16.A03/g16/l1.exe "/scratch/3071533/3D_NICS/Gau-35027.inp" -scrdir="/scratch/3071533/3D_NICS/"
 Default CPUs for threads: 0-9,14-23,28-37,42-51
 Default is to use a total of  40 processors:
                               40 via shared-memory
                                1 via Linda
 Entering Link 1 = /local/gaussian-16.A03/g16/l1.exe PID=     35029.
  
 Copyright (c) 1988,1990,1992,1993,1995,1998,2003,2009,2016,
            Gaussian, Inc.  All Rights Reserved.
  
 This is part of the Gaussian(R) 16 program.  It is based on
 the Gaussian(R) 09 system (copyright 2009, Gaussian, Inc.),
 the Gaussian(R) 03 system (copyright 2003, Gaussian, Inc.),
 the Gaussian(R) 98 system (copyright 1998, Gaussian, Inc.),
 the Gaussian(R) 94 system (copyright 1995, Gaussian, Inc.),
 the Gaussian 92(TM) system (copyright 1992, Gaussian, Inc.),
 the Gaussian 90(TM) system (copyright 1990, Gaussian, Inc.),
 the Gaussian 88(TM) system (copyright 1988, Gaussian, Inc.),
 the Gaussian 86(TM) system (copyright 1986, Carnegie Mellon
 University), and the Gaussian 82(TM) system (copyright 1983,
 Carnegie Mellon University). Gaussian is a federally registered
 trademark of Gaussian, Inc.
  
 This software contains proprietary and confidential information,
 including trade secrets, belonging to Gaussian, Inc.
  
 This software is provided under written license and may be
 used, copied, transmitted, or stored only in accord with that
 written license.
  
 The following legend is applicable only to US Government
 contracts under FAR:
  
                    RESTRICTED RIGHTS LEGEND
  
 Use, reproduction and disclosure by the US Government is
 subject to restrictions as set forth in subparagraphs (a)
 and (c) of the Commercial Computer Software - Restricted
 Rights clause in FAR 52.227-19.
  
 Gaussian, Inc.
 340 Quinnipiac St., Bldg. 40, Wallingford CT 06492
  
  
 ---------------------------------------------------------------
 Warning -- This program may not be used in any manner that
 competes with the business of Gaussian, Inc. or will provide
 assistance to any competitor of Gaussian, Inc.  The licensee
 of this program is prohibited from giving any competitor of
 Gaussian, Inc. access to this program.  By using this program,
 the user acknowledges that Gaussian, Inc. is engaged in the
 business of creating and licensing software in the field of
 computational chemistry and represents and warrants to the
 licensee that it is not a competitor of Gaussian, Inc. and that
 it will not use this program in any manner prohibited above.
 ---------------------------------------------------------------
  

 Cite this work as:
 Gaussian 16, Revision A.03,
 M. J. Frisch, G. W. Trucks, H. B. Schlegel, G. E. Scuseria, 
 M. A. Robb, J. R. Cheeseman, G. Scalmani, V. Barone, 
 G. A. Petersson, H. Nakatsuji, X. Li, M. Caricato, A. V. Marenich, 
 J. Bloino, B. G. Janesko, R. Gomperts, B. Mennucci, H. P. Hratchian, 
 J. V. Ortiz, A. F. Izmaylov, J. L. Sonnenberg, D. Williams-Young, 
 F. Ding, F. Lipparini, F. Egidi, J. Goings, B. Peng, A. Petrone, 
 T. Henderson, D. Ranasinghe, V. G. Zakrzewski, J. Gao, N. Rega, 
 G. Zheng, W. Liang, M. Hada, M. Ehara, K. Toyota, R. Fukuda, 
 J. Hasegawa, M. Ishida, T. Nakajima, Y. Honda, O. Kitao, H. Nakai, 
 T. Vreven, K. Throssell, J. A. Montgomery, Jr., J. E. Peralta, 
 F. Ogliaro, M. J. Bearpark, J. J. Heyd, E. N. Brothers, K. N. Kudin, 
 V. N. Staroverov, T. A. Keith, R. Kobayashi, J. Normand, 
 K. Raghavachari, A. P. Rendell, J. C. Burant, S. S. Iyengar, 
 J. Tomasi, M. Cossi, J. M. Millam, M. Klene, C. Adamo, R. Cammi, 
 J. W. Ochterski, R. L. Martin, K. Morokuma, O. Farkas, 
 J. B. Foresman, and D. J. Fox, Gaussian, Inc., Wallingford CT, 2016.
 
 ******************************************
 Gaussian 16:  ES64L-G16RevA.03 25-Dec-2016
                20-Nov-2025 
 ******************************************
 %nprocshared=40
 Will use up to   40 processors via shared memory.
 %mem=90gb
 %chk=dewar_opt_aligendXY_3D_NICS.chk
 -----------------------------------------------------------------
 #p nmr=giao wb97x/aug-cc-pvdz nosymm geom=connectivity guess=read
 -----------------------------------------------------------------
 1/38=1,57=2,172=1/1;
 2/12=2,15=1,17=6,18=5,40=1/2;
 3/5=16,7=10,11=2,25=1,30=1,74=-57,116=-2/1,2,3,8;
 4/5=1/1;
 5/5=2,38=6/2;
 8/6=1,10=90,11=11/1;
 10/13=100,31=1,45=16/2;
 6/7=2,8=2,9=2,10=2,28=1/1;
 99/9=1/99;
 Leave Link    1 at Thu Nov 20 14:53:30 2025, MaxMem= 12079595520 cpu:               5.2 elap:               0.3
 (Enter /local/gaussian-16.A03/g16/l101.exe)
 --------------------------
 File Created by py.Aroma 5
 --------------------------
 Symbolic Z-matrix:
 Charge =  0 Multiplicity = 1
 C                     2.36278  -0.69989  -0.00171 
 C                     2.36278   0.69939  -0.00154 
 C                     1.16969   1.43783   0. 
 C                     0.        0.6967    0. 
 C                     0.       -0.6967    0. 
 C                     1.16931  -1.43835  -0.00054 
 C                    -1.52527  -0.79182   0.02208 
 C                    -2.16916  -0.67074   1.39765 
 C                    -2.16898   0.6695    1.39789 
 C                    -1.52538   0.79081   0.02252 
 H                     3.31812  -1.22704  -0.00582 
 H                     3.3185    1.22585  -0.0055 
 H                     1.18499   2.5282   -0.00861 
 H                     1.18519  -2.52869  -0.00928 
 H                    -2.03256  -1.36767  -0.75924 
 H                    -2.44964  -1.42081   2.13686 
 H                    -2.45039   1.41947   2.13682 
 H                    -2.03291   1.36688  -0.7586 
 Bq                    4.85     -2.33     -0.26 
 Bq                    4.85     -2.33     -0.16 
 Bq                    4.85     -2.33     -0.06 
 Bq                    4.85     -2.33      0.04 
 Bq                    4.85     -2.33      0.14 
 Bq                    4.85     -2.33      0.24 
 Bq                    4.85     -2.33      0.34 
 Bq                    4.85     -2.33      0.44 
 Bq                    4.85     -2.33      0.54 
 Bq                    4.85     -2.33      0.64 
 Bq                    4.85     -2.33      0.74 
 Bq                    4.85     -2.33      0.84 
 Bq                    4.85     -2.33      0.94 
 Bq                    4.85     -2.33      1.04 
 Bq                    4.85     -2.33      1.14 
 Bq                    4.85     -2.33      1.24 
 Bq                    4.85     -2.33      1.34 
 Bq                    4.85     -2.33      1.44 
 Bq                    4.85     -2.33      1.54 
 Bq                    4.85     -2.33      1.64 
 Bq                    4.85     -2.33      1.74 
 Bq                    4.85     -2.33      1.84 
 Bq                    4.85     -2.33      1.94 
 Bq                    4.85     -2.33      2.04 
 Bq                    4.85     -2.33      2.14 
 Bq                    4.85     -2.33      2.24 
 Bq                    4.85     -2.33      2.34 
 Bq                    4.85     -2.33      2.44 
 Bq                    4.85     -2.33      2.54 
 Bq                    4.85     -2.33      2.64 
 Bq                    4.85     -2.33      2.74 
 Bq                    4.85     -2.33      2.84 
 Bq                    4.85     -2.33      2.94 
 Bq                    4.85     -2.33      3.04 
 Bq                    4.85     -2.33      3.14 
 Bq                    4.85     -2.33      3.24 
 Bq                    4.85     -2.33      3.34 
 Bq                    4.85     -2.33      3.44 
 Bq                    4.85     -2.33      3.54 
 Bq                    4.85     -2.33      3.64 
 Bq                    4.85     -2.23     -2.26 
 Bq                    4.85     -2.23     -2.16 
 Bq                    4.85     -2.23     -2.06 
 Bq                    4.85     -2.23     -1.96 
 Bq                    4.85     -2.23     -1.86 
 Bq                    4.85     -2.23     -1.76 
 Bq                    4.85     -2.23     -1.66 
 Bq                    4.85     -2.23     -1.56 
 Bq                    4.85     -2.23     -1.46 
 Bq                    4.85     -2.23     -1.36 
 Bq                    4.85     -2.23     -1.26 
 Bq                    4.85     -2.23     -1.16 
 Bq                    4.85     -2.23     -1.06 
 Bq                    4.85     -2.23     -0.96 
 Bq                    4.85     -2.23     -0.86 
 Bq                    4.85     -2.23     -0.76 
 Bq                    4.85     -2.23     -0.66 
 Bq                    4.85     -2.23     -0.56 
 Bq                    4.85     -2.23     -0.46 
 Bq                    4.85     -2.23     -0.36 
 Bq                    4.85     -2.23     -0.26 
 Bq                    4.85     -2.23     -0.16 
 Bq                    4.85     -2.23     -0.06 
 Bq                    4.85     -2.23      0.04 
 Bq                    4.85     -2.23      0.14 
 Bq                    4.85     -2.23      0.24 
 Bq                    4.85     -2.23      0.34 
 Bq                    4.85     -2.23      0.44 
 Bq                    4.85     -2.23      0.54 
 Bq                    4.85     -2.23      0.64 
 Bq                    4.85     -2.23      0.74 
 Bq                    4.85     -2.23      0.84 
 Bq                    4.85     -2.23      0.94 
 Bq                    4.85     -2.23      1.04 
 Bq                    4.85     -2.23      1.14 
 Bq                    4.85     -2.23      1.24 
 Bq                    4.85     -2.23      1.34 
 Bq                    4.85     -2.23      1.44 
 Bq                    4.85     -2.23      1.54 
 Bq                    4.85     -2.23      1.64 
 Bq                    4.85     -2.23      1.74 
 Bq                    4.85     -2.23      1.84 
 Bq                    4.85     -2.23      1.94 
 Bq                    4.85     -2.23      2.04 
 Bq                    4.85     -2.23      2.14 
 Bq                    4.85     -2.23      2.24 
 Bq                    4.85     -2.23      2.34 
 Bq                    4.85     -2.23      2.44 
 Bq                    4.85     -2.23      2.54 
 Bq                    4.85     -2.23      2.64 
 Bq                    4.85     -2.23      2.74 
 Bq                    4.85     -2.23      2.84 
 Bq                    4.85     -2.23      2.94 
 Bq                    4.85     -2.23      3.04 
 Bq                    4.85     -2.23      3.14 
 Bq                    4.85     -2.23      3.24 
 Bq                    4.85     -2.23      3.34 
 Bq                    4.85     -2.23      3.44 
 Bq                    4.85     -2.23      3.54 
 Bq                    4.85     -2.23      3.64 
 Bq                    4.85     -2.13     -2.26 
 Bq                    4.85     -2.13     -2.16 
 Bq                    4.85     -2.13     -2.06 
 Bq                    4.85     -2.13     -1.96 
 Bq                    4.85     -2.13     -1.86 
 Bq                    4.85     -2.13     -1.76 
 Bq                    4.85     -2.13     -1.66 
 Bq                    4.85     -2.13     -1.56 
 Bq                    4.85     -2.13     -1.46 
 Bq                    4.85     -2.13     -1.36 
 Bq                    4.85     -2.13     -1.26 
 Bq                    4.85     -2.13     -1.16 
 Bq                    4.85     -2.13     -1.06 
 Bq                    4.85     -2.13     -0.96 
 Bq                    4.85     -2.13     -0.86 
 Bq                    4.85     -2.13     -0.76 
 Bq                    4.85     -2.13     -0.66 
 Bq                    4.85     -2.13     -0.56 
 Bq                    4.85     -2.13     -0.46 
 Bq                    4.85     -2.13     -0.36 
 Bq                    4.85     -2.13     -0.26 
 Bq                    4.85     -2.13     -0.16 
 Bq                    4.85     -2.13     -0.06 
 Bq                    4.85     -2.13      0.04 
 Bq                    4.85     -2.13      0.14 
 Bq                    4.85     -2.13      0.24 
 Bq                    4.85     -2.13      0.34 
 Bq                    4.85     -2.13      0.44 
 Bq                    4.85     -2.13      0.54 
 Bq                    4.85     -2.13      0.64 
 Bq                    4.85     -2.13      0.74 
 Bq                    4.85     -2.13      0.84 
 Bq                    4.85     -2.13      0.94 
 Bq                    4.85     -2.13      1.04 
 Bq                    4.85     -2.13      1.14 
 Bq                    4.85     -2.13      1.24 
 Bq                    4.85     -2.13      1.34 
 Bq                    4.85     -2.13      1.44 
 Bq                    4.85     -2.13      1.54 
 Bq                    4.85     -2.13      1.64 
 Bq                    4.85     -2.13      1.74 
 Bq                    4.85     -2.13      1.84 
 Bq                    4.85     -2.13      1.94 
 Bq                    4.85     -2.13      2.04 
 Bq                    4.85     -2.13      2.14 
 Bq                    4.85     -2.13      2.24 
 Bq                    4.85     -2.13      2.34 
 Bq                    4.85     -2.13      2.44 
 Bq                    4.85     -2.13      2.54 
 Bq                    4.85     -2.13      2.64 
 Bq                    4.85     -2.13      2.74 
 Bq                    4.85     -2.13      2.84 
 Bq                    4.85     -2.13      2.94 
 Bq                    4.85     -2.13      3.04 
 Bq                    4.85     -2.13      3.14 
 Bq                    4.85     -2.13      3.24 
 Bq                    4.85     -2.13      3.34 
 Bq                    4.85     -2.13      3.44 
 Bq                    4.85     -2.13      3.54 
 Bq                    4.85     -2.13      3.64 
 Bq                    4.85     -2.03     -2.26 
 Bq                    4.85     -2.03     -2.16 
 Bq                    4.85     -2.03     -2.06 
 Bq                    4.85     -2.03     -1.96 
 Bq                    4.85     -2.03     -1.86 
 Bq                    4.85     -2.03     -1.76 
 Bq                    4.85     -2.03     -1.66 
 Bq                    4.85     -2.03     -1.56 
 Bq                    4.85     -2.03     -1.46 
 Bq                    4.85     -2.03     -1.36 
 Bq                    4.85     -2.03     -1.26 
 Bq                    4.85     -2.03     -1.16 
 Bq                    4.85     -2.03     -1.06 
 Bq                    4.85     -2.03     -0.96 
 Bq                    4.85     -2.03     -0.86 
 Bq                    4.85     -2.03     -0.76 
 Bq                    4.85     -2.03     -0.66 
 Bq                    4.85     -2.03     -0.56 
 Bq                    4.85     -2.03     -0.46 
 Bq                    4.85     -2.03     -0.36 
 Bq                    4.85     -2.03     -0.26 
 Bq                    4.85     -2.03     -0.16 
 Bq                    4.85     -2.03     -0.06 
 Bq                    4.85     -2.03      0.04 
 Bq                    4.85     -2.03      0.14 
 Bq                    4.85     -2.03      0.24 
 Bq                    4.85     -2.03      0.34 
 Bq                    4.85     -2.03      0.44 
 Bq                    4.85     -2.03      0.54 
 Bq                    4.85     -2.03      0.64 
 Bq                    4.85     -2.03      0.74 
 Bq                    4.85     -2.03      0.84 
 Bq                    4.85     -2.03      0.94 
 Bq                    4.85     -2.03      1.04 
 Bq                    4.85     -2.03      1.14 
 Bq                    4.85     -2.03      1.24 
 Bq                    4.85     -2.03      1.34 
 Bq                    4.85     -2.03      1.44 
 Bq                    4.85     -2.03      1.54 
 Bq                    4.85     -2.03      1.64 
 Bq                    4.85     -2.03      1.74 
 Bq                    4.85     -2.03      1.84 
 Bq                    4.85     -2.03      1.94 
 Bq                    4.85     -2.03      2.04 
 Bq                    4.85     -2.03      2.14 
 Bq                    4.85     -2.03      2.24 
 Bq                    4.85     -2.03      2.34 
 Bq                    4.85     -2.03      2.44 
 Bq                    4.85     -2.03      2.54 
 Bq                    4.85     -2.03      2.64 
 Bq                    4.85     -2.03      2.74 
 Bq                    4.85     -2.03      2.84 
 Bq                    4.85     -2.03      2.94 
 Bq                    4.85     -2.03      3.04 
 Bq                    4.85     -2.03      3.14 
 Bq                    4.85     -2.03      3.24 
 Bq                    4.85     -2.03      3.34 
 Bq                    4.85     -2.03      3.44 
 Bq                    4.85     -2.03      3.54 
 Bq                    4.85     -2.03      3.64 
 Bq                    4.85     -1.93     -2.26 
 Bq                    4.85     -1.93     -2.16 
 Bq                    4.85     -1.93     -2.06 
 Bq                    4.85     -1.93     -1.96 
 Bq                    4.85     -1.93     -1.86 
 Bq                    4.85     -1.93     -1.76 
 Bq                    4.85     -1.93     -1.66 
 Bq                    4.85     -1.93     -1.56 
 Bq                    4.85     -1.93     -1.46 
 Bq                    4.85     -1.93     -1.36 
 Bq                    4.85     -1.93     -1.26 
 Bq                    4.85     -1.93     -1.16 
 Bq                    4.85     -1.93     -1.06 
 Bq                    4.85     -1.93     -0.96 
 Bq                    4.85     -1.93     -0.86 
 Bq                    4.85     -1.93     -0.76 
 Bq                    4.85     -1.93     -0.66 
 Bq                    4.85     -1.93     -0.56 
 Bq                    4.85     -1.93     -0.46 
 Bq                    4.85     -1.93     -0.36 
 Bq                    4.85     -1.93     -0.26 
 Bq                    4.85     -1.93     -0.16 
 Bq                    4.85     -1.93     -0.06 
 Bq                    4.85     -1.93      0.04 
 Bq                    4.85     -1.93      0.14 
 Bq                    4.85     -1.93      0.24 
 Bq                    4.85     -1.93      0.34 
 Bq                    4.85     -1.93      0.44 
 Bq                    4.85     -1.93      0.54 
 Bq                    4.85     -1.93      0.64 
 Bq                    4.85     -1.93      0.74 
 Bq                    4.85     -1.93      0.84 
 Bq                    4.85     -1.93      0.94 
 Bq                    4.85     -1.93      1.04 
 Bq                    4.85     -1.93      1.14 
 Bq                    4.85     -1.93      1.24 
 Bq                    4.85     -1.93      1.34 
 Bq                    4.85     -1.93      1.44 
 Bq                    4.85     -1.93      1.54 
 Bq                    4.85     -1.93      1.64 
 Bq                    4.85     -1.93      1.74 
 Bq                    4.85     -1.93      1.84 
 Bq                    4.85     -1.93      1.94 
 Bq                    4.85     -1.93      2.04 
 Bq                    4.85     -1.93      2.14 
 Bq                    4.85     -1.93      2.24 
 Bq                    4.85     -1.93      2.34 
 Bq                    4.85     -1.93      2.44 
 Bq                    4.85     -1.93      2.54 
 Bq                    4.85     -1.93      2.64 
 Bq                    4.85     -1.93      2.74 
 Bq                    4.85     -1.93      2.84 
 Bq                    4.85     -1.93      2.94 
 Bq                    4.85     -1.93      3.04 
 Bq                    4.85     -1.93      3.14 
 Bq                    4.85     -1.93      3.24 
 Bq                    4.85     -1.93      3.34 
 Bq                    4.85     -1.93      3.44 
 Bq                    4.85     -1.93      3.54 
 Bq                    4.85     -1.93      3.64 
 Bq                    4.85     -1.83     -2.26 
 Bq                    4.85     -1.83     -2.16 
 Bq                    4.85     -1.83     -2.06 
 Bq                    4.85     -1.83     -1.96 
 Bq                    4.85     -1.83     -1.86 
 Bq                    4.85     -1.83     -1.76 
 Bq                    4.85     -1.83     -1.66 
 Bq                    4.85     -1.83     -1.56 
 Bq                    4.85     -1.83     -1.46 
 Bq                    4.85     -1.83     -1.36 
 Bq                    4.85     -1.83     -1.26 
 Bq                    4.85     -1.83     -1.16 
 Bq                    4.85     -1.83     -1.06 
 Bq                    4.85     -1.83     -0.96 
 Bq                    4.85     -1.83     -0.86 
 Bq                    4.85     -1.83     -0.76 
 Bq                    4.85     -1.83     -0.66 
 Bq                    4.85     -1.83     -0.56 
 Bq                    4.85     -1.83     -0.46 
 Bq                    4.85     -1.83     -0.36 
 Bq                    4.85     -1.83     -0.26 
 Bq                    4.85     -1.83     -0.16 
 Bq                    4.85     -1.83     -0.06 
 Bq                    4.85     -1.83      0.04 
 Bq                    4.85     -1.83      0.14 
 Bq                    4.85     -1.83      0.24 
 Bq                    4.85     -1.83      0.34 
 Bq                    4.85     -1.83      0.44 
 Bq                    4.85     -1.83      0.54 
 Bq                    4.85     -1.83      0.64 
 Bq                    4.85     -1.83      0.74 
 Bq                    4.85     -1.83      0.84 
 Bq                    4.85     -1.83      0.94 
 Bq                    4.85     -1.83      1.04 
 Bq                    4.85     -1.83      1.14 
 Bq                    4.85     -1.83      1.24 
 Bq                    4.85     -1.83      1.34 
 Bq                    4.85     -1.83      1.44 
 Bq                    4.85     -1.83      1.54 
 Bq                    4.85     -1.83      1.64 
 Bq                    4.85     -1.83      1.74 
 Bq                    4.85     -1.83      1.84 
 Bq                    4.85     -1.83      1.94 
 Bq                    4.85     -1.83      2.04 
 Bq                    4.85     -1.83      2.14 
 Bq                    4.85     -1.83      2.24 
 Bq                    4.85     -1.83      2.34 
 Bq                    4.85     -1.83      2.44 
 Bq                    4.85     -1.83      2.54 
 Bq                    4.85     -1.83      2.64 
 Bq                    4.85     -1.83      2.74 
 Bq                    4.85     -1.83      2.84 
 Bq                    4.85     -1.83      2.94 
 Bq                    4.85     -1.83      3.04 
 Bq                    4.85     -1.83      3.14 
 Bq                    4.85     -1.83      3.24 
 Bq                    4.85     -1.83      3.34 
 Bq                    4.85     -1.83      3.44 
 Bq                    4.85     -1.83      3.54 
 Bq                    4.85     -1.83      3.64 
 Bq                    4.85     -1.73     -2.26 
 Bq                    4.85     -1.73     -2.16 
 Bq                    4.85     -1.73     -2.06 
 Bq                    4.85     -1.73     -1.96 
 Bq                    4.85     -1.73     -1.86 
 Bq                    4.85     -1.73     -1.76 
 Bq                    4.85     -1.73     -1.66 
 Bq                    4.85     -1.73     -1.56 
 Bq                    4.85     -1.73     -1.46 
 Bq                    4.85     -1.73     -1.36 
 Bq                    4.85     -1.73     -1.26 
 Bq                    4.85     -1.73     -1.16 
 Bq                    4.85     -1.73     -1.06 
 Bq                    4.85     -1.73     -0.96 
 Bq                    4.85     -1.73     -0.86 
 Bq                    4.85     -1.73     -0.76 
 Bq                    4.85     -1.73     -0.66 
 Bq                    4.85     -1.73     -0.56 
 Bq                    4.85     -1.73     -0.46 
 Bq                    4.85     -1.73     -0.36 
 Bq                    4.85     -1.73     -0.26 
 Bq                    4.85     -1.73     -0.16 
 Bq                    4.85     -1.73     -0.06 
 Bq                    4.85     -1.73      0.04 
 Bq                    4.85     -1.73      0.14 
 Bq                    4.85     -1.73      0.24 
 Bq                    4.85     -1.73      0.34 
 Bq                    4.85     -1.73      0.44 
 Bq                    4.85     -1.73      0.54 
 Bq                    4.85     -1.73      0.64 
 Bq                    4.85     -1.73      0.74 
 Bq                    4.85     -1.73      0.84 
 Bq                    4.85     -1.73      0.94 
 Bq                    4.85     -1.73      1.04 
 Bq                    4.85     -1.73      1.14 
 Bq                    4.85     -1.73      1.24 
 Bq                    4.85     -1.73      1.34 
 Bq                    4.85     -1.73      1.44 
 Bq                    4.85     -1.73      1.54 
 Bq                    4.85     -1.73      1.64 
 Bq                    4.85     -1.73      1.74 
 Bq                    4.85     -1.73      1.84 
 Bq                    4.85     -1.73      1.94 
 Bq                    4.85     -1.73      2.04 
 Bq                    4.85     -1.73      2.14 
 Bq                    4.85     -1.73      2.24 
 Bq                    4.85     -1.73      2.34 
 Bq                    4.85     -1.73      2.44 
 Bq                    4.85     -1.73      2.54 
 Bq                    4.85     -1.73      2.64 
 Bq                    4.85     -1.73      2.74 
 Bq                    4.85     -1.73      2.84 
 Bq                    4.85     -1.73      2.94 
 Bq                    4.85     -1.73      3.04 
 Bq                    4.85     -1.73      3.14 
 Bq                    4.85     -1.73      3.24 
 Bq                    4.85     -1.73      3.34 
 Bq                    4.85     -1.73      3.44 
 Bq                    4.85     -1.73      3.54 
 Bq                    4.85     -1.73      3.64 
 Bq                    4.85     -1.63     -2.26 
 Bq                    4.85     -1.63     -2.16 
 Bq                    4.85     -1.63     -2.06 
 Bq                    4.85     -1.63     -1.96 
 Bq                    4.85     -1.63     -1.86 
 Bq                    4.85     -1.63     -1.76 
 Bq                    4.85     -1.63     -1.66 
 Bq                    4.85     -1.63     -1.56 
 Bq                    4.85     -1.63     -1.46 
 Bq                    4.85     -1.63     -1.36 
 Bq                    4.85     -1.63     -1.26 
 Bq                    4.85     -1.63     -1.16 
 Bq                    4.85     -1.63     -1.06 
 Bq                    4.85     -1.63     -0.96 
 Bq                    4.85     -1.63     -0.86 
 Bq                    4.85     -1.63     -0.76 
 Bq                    4.85     -1.63     -0.66 
 Bq                    4.85     -1.63     -0.56 
 Bq                    4.85     -1.63     -0.46 
 Bq                    4.85     -1.63     -0.36 
 Bq                    4.85     -1.63     -0.26 
 Bq                    4.85     -1.63     -0.16 
 Bq                    4.85     -1.63     -0.06 
 Bq                    4.85     -1.63      0.04 
 Bq                    4.85     -1.63      0.14 
 Bq                    4.85     -1.63      0.24 
 Bq                    4.85     -1.63      0.34 
 Bq                    4.85     -1.63      0.44 
 Bq                    4.85     -1.63      0.54 
 Bq                    4.85     -1.63      0.64 
 Bq                    4.85     -1.63      0.74 
 Bq                    4.85     -1.63      0.84 
 Bq                    4.85     -1.63      0.94 
 Bq                    4.85     -1.63      1.04 
 Bq                    4.85     -1.63      1.14 
 Bq                    4.85     -1.63      1.24 
 Bq                    4.85     -1.63      1.34 
 Bq                    4.85     -1.63      1.44 
 Bq                    4.85     -1.63      1.54 
 Bq                    4.85     -1.63      1.64 
 Bq                    4.85     -1.63      1.74 
 Bq                    4.85     -1.63      1.84 
 Bq                    4.85     -1.63      1.94 
 Bq                    4.85     -1.63      2.04 
 Bq                    4.85     -1.63      2.14 
 Bq                    4.85     -1.63      2.24 
 Bq                    4.85     -1.63      2.34 
 Bq                    4.85     -1.63      2.44 
 Bq                    4.85     -1.63      2.54 
 Bq                    4.85     -1.63      2.64 
 Bq                    4.85     -1.63      2.74 
 Bq                    4.85     -1.63      2.84 
 Bq                    4.85     -1.63      2.94 
 Bq                    4.85     -1.63      3.04 
 Bq                    4.85     -1.63      3.14 
 Bq                    4.85     -1.63      3.24 
 Bq                    4.85     -1.63      3.34 
 Bq                    4.85     -1.63      3.44 
 Bq                    4.85     -1.63      3.54 
 Bq                    4.85     -1.63      3.64 
 Bq                    4.85     -1.53     -2.26 
 Bq                    4.85     -1.53     -2.16 
 Bq                    4.85     -1.53     -2.06 
 Bq                    4.85     -1.53     -1.96 
 Bq                    4.85     -1.53     -1.86 
 Bq                    4.85     -1.53     -1.76 
 Bq                    4.85     -1.53     -1.66 
 Bq                    4.85     -1.53     -1.56 
 Bq                    4.85     -1.53     -1.46 
 Bq                    4.85     -1.53     -1.36 
 Bq                    4.85     -1.53     -1.26 
 Bq                    4.85     -1.53     -1.16 
 Bq                    4.85     -1.53     -1.06 
 Bq                    4.85     -1.53     -0.96 
 Bq                    4.85     -1.53     -0.86 
 Bq                    4.85     -1.53     -0.76 
 Bq                    4.85     -1.53     -0.66 
 Bq                    4.85     -1.53     -0.56 
 Bq                    4.85     -1.53     -0.46 
 Bq                    4.85     -1.53     -0.36 
 Bq                    4.85     -1.53     -0.26 
 Bq                    4.85     -1.53     -0.16 
 Bq                    4.85     -1.53     -0.06 
 Bq                    4.85     -1.53      0.04 
 Bq                    4.85     -1.53      0.14 
 Bq                    4.85     -1.53      0.24 
 Bq                    4.85     -1.53      0.34 
 Bq                    4.85     -1.53      0.44 
 Bq                    4.85     -1.53      0.54 
 Bq                    4.85     -1.53      0.64 
 Bq                    4.85     -1.53      0.74 
 Bq                    4.85     -1.53      0.84 
 Bq                    4.85     -1.53      0.94 
 Bq                    4.85     -1.53      1.04 
 Bq                    4.85     -1.53      1.14 
 Bq                    4.85     -1.53      1.24 
 Bq                    4.85     -1.53      1.34 
 Bq                    4.85     -1.53      1.44 
 Bq                    4.85     -1.53      1.54 
 Bq                    4.85     -1.53      1.64 
 Bq                    4.85     -1.53      1.74 
 Bq                    4.85     -1.53      1.84 
 Bq                    4.85     -1.53      1.94 
 Bq                    4.85     -1.53      2.04 
 Bq                    4.85     -1.53      2.14 
 Bq                    4.85     -1.53      2.24 
 Bq                    4.85     -1.53      2.34 
 Bq                    4.85     -1.53      2.44 
 Bq                    4.85     -1.53      2.54 
 Bq                    4.85     -1.53      2.64 
 Bq                    4.85     -1.53      2.74 
 Bq                    4.85     -1.53      2.84 
 Bq                    4.85     -1.53      2.94 
 Bq                    4.85     -1.53      3.04 
 Bq                    4.85     -1.53      3.14 
 Bq                    4.85     -1.53      3.24 
 Bq                    4.85     -1.53      3.34 
 Bq                    4.85     -1.53      3.44 
 Bq                    4.85     -1.53      3.54 
 Bq                    4.85     -1.53      3.64 
 Bq                    4.85     -1.43     -2.26 
 Bq                    4.85     -1.43     -2.16 
 Bq                    4.85     -1.43     -2.06 
 Bq                    4.85     -1.43     -1.96 
 Bq                    4.85     -1.43     -1.86 
 Bq                    4.85     -1.43     -1.76 
 Bq                    4.85     -1.43     -1.66 
 Bq                    4.85     -1.43     -1.56 
 Bq                    4.85     -1.43     -1.46 
 Bq                    4.85     -1.43     -1.36 
 Bq                    4.85     -1.43     -1.26 
 Bq                    4.85     -1.43     -1.16 
 Bq                    4.85     -1.43     -1.06 
 Bq                    4.85     -1.43     -0.96 
 Bq                    4.85     -1.43     -0.86 
 Bq                    4.85     -1.43     -0.76 
 Bq                    4.85     -1.43     -0.66 
 Bq                    4.85     -1.43     -0.56 
 Bq                    4.85     -1.43     -0.46 
 Bq                    4.85     -1.43     -0.36 
 Bq                    4.85     -1.43     -0.26 
 Bq                    4.85     -1.43     -0.16 
 Bq                    4.85     -1.43     -0.06 
 Bq                    4.85     -1.43      0.04 
 Bq                    4.85     -1.43      0.14 
 Bq                    4.85     -1.43      0.24 
 Bq                    4.85     -1.43      0.34 
 Bq                    4.85     -1.43      0.44 
 Bq                    4.85     -1.43      0.54 
 Bq                    4.85     -1.43      0.64 
 Bq                    4.85     -1.43      0.74 
 Bq                    4.85     -1.43      0.84 
 Bq                    4.85     -1.43      0.94 
 Bq                    4.85     -1.43      1.04 
 Bq                    4.85     -1.43      1.14 
 Bq                    4.85     -1.43      1.24 
 Bq                    4.85     -1.43      1.34 
 Bq                    4.85     -1.43      1.44 
 Bq                    4.85     -1.43      1.54 
 Bq                    4.85     -1.43      1.64 
 Bq                    4.85     -1.43      1.74 
 Bq                    4.85     -1.43      1.84 
 Bq                    4.85     -1.43      1.94 
 Bq                    4.85     -1.43      2.04 
 Bq                    4.85     -1.43      2.14 
 Bq                    4.85     -1.43      2.24 
 Bq                    4.85     -1.43      2.34 
 Bq                    4.85     -1.43      2.44 
 Bq                    4.85     -1.43      2.54 
 Bq                    4.85     -1.43      2.64 
 Bq                    4.85     -1.43      2.74 
 Bq                    4.85     -1.43      2.84 
 Bq                    4.85     -1.43      2.94 
 Bq                    4.85     -1.43      3.04 
 Bq                    4.85     -1.43      3.14 
 Bq                    4.85     -1.43      3.24 
 Bq                    4.85     -1.43      3.34 
 Bq                    4.85     -1.43      3.44 
 Bq                    4.85     -1.43      3.54 
 Bq                    4.85     -1.43      3.64 
 Bq                    4.85     -1.33     -2.26 
 Bq                    4.85     -1.33     -2.16 
 Bq                    4.85     -1.33     -2.06 
 Bq                    4.85     -1.33     -1.96 
 Bq                    4.85     -1.33     -1.86 
 Bq                    4.85     -1.33     -1.76 
 Bq                    4.85     -1.33     -1.66 
 Bq                    4.85     -1.33     -1.56 
 Bq                    4.85     -1.33     -1.46 
 Bq                    4.85     -1.33     -1.36 
 Bq                    4.85     -1.33     -1.26 
 Bq                    4.85     -1.33     -1.16 
 Bq                    4.85     -1.33     -1.06 
 Bq                    4.85     -1.33     -0.96 
 Bq                    4.85     -1.33     -0.86 
 Bq                    4.85     -1.33     -0.76 
 Bq                    4.85     -1.33     -0.66 
 Bq                    4.85     -1.33     -0.56 
 Bq                    4.85     -1.33     -0.46 
 Bq                    4.85     -1.33     -0.36 
 Bq                    4.85     -1.33     -0.26 
 Bq                    4.85     -1.33     -0.16 
 Bq                    4.85     -1.33     -0.06 
 Bq                    4.85     -1.33      0.04 
 Bq                    4.85     -1.33      0.14 
 Bq                    4.85     -1.33      0.24 
 Bq                    4.85     -1.33      0.34 
 Bq                    4.85     -1.33      0.44 
 Bq                    4.85     -1.33      0.54 
 Bq                    4.85     -1.33      0.64 
 Bq                    4.85     -1.33      0.74 
 Bq                    4.85     -1.33      0.84 
 Bq                    4.85     -1.33      0.94 
 Bq                    4.85     -1.33      1.04 
 Bq                    4.85     -1.33      1.14 
 Bq                    4.85     -1.33      1.24 
 Bq                    4.85     -1.33      1.34 
 Bq                    4.85     -1.33      1.44 
 Bq                    4.85     -1.33      1.54 
 Bq                    4.85     -1.33      1.64 
 Bq                    4.85     -1.33      1.74 
 Bq                    4.85     -1.33      1.84 
 Bq                    4.85     -1.33      1.94 
 Bq                    4.85     -1.33      2.04 
 Bq                    4.85     -1.33      2.14 
 Bq                    4.85     -1.33      2.24 
 Bq                    4.85     -1.33      2.34 
 Bq                    4.85     -1.33      2.44 
 Bq                    4.85     -1.33      2.54 
 Bq                    4.85     -1.33      2.64 
 Bq                    4.85     -1.33      2.74 
 Bq                    4.85     -1.33      2.84 
 Bq                    4.85     -1.33      2.94 
 Bq                    4.85     -1.33      3.04 
 Bq                    4.85     -1.33      3.14 
 Bq                    4.85     -1.33      3.24 
 Bq                    4.85     -1.33      3.34 
 Bq                    4.85     -1.33      3.44 
 Bq                    4.85     -1.33      3.54 
 Bq                    4.85     -1.33      3.64 
 Bq                    4.85     -1.23     -2.26 
 Bq                    4.85     -1.23     -2.16 
 Bq                    4.85     -1.23     -2.06 
 Bq                    4.85     -1.23     -1.96 
 Bq                    4.85     -1.23     -1.86 
 Bq                    4.85     -1.23     -1.76 
 Bq                    4.85     -1.23     -1.66 
 Bq                    4.85     -1.23     -1.56 
 Bq                    4.85     -1.23     -1.46 
 Bq                    4.85     -1.23     -1.36 
 Bq                    4.85     -1.23     -1.26 
 Bq                    4.85     -1.23     -1.16 
 Bq                    4.85     -1.23     -1.06 
 Bq                    4.85     -1.23     -0.96 
 Bq                    4.85     -1.23     -0.86 
 Bq                    4.85     -1.23     -0.76 
 Bq                    4.85     -1.23     -0.66 
 Bq                    4.85     -1.23     -0.56 
 Bq                    4.85     -1.23     -0.46 
 Bq                    4.85     -1.23     -0.36 
 Bq                    4.85     -1.23     -0.26 
 Bq                    4.85     -1.23     -0.16 
 Bq                    4.85     -1.23     -0.06 
 Bq                    4.85     -1.23      0.04 
 Bq                    4.85     -1.23      0.14 
 Bq                    4.85     -1.23      0.24 
 Bq                    4.85     -1.23      0.34 
 Bq                    4.85     -1.23      0.44 
 Bq                    4.85     -1.23      0.54 
 Bq                    4.85     -1.23      0.64 
 Bq                    4.85     -1.23      0.74 
 Bq                    4.85     -1.23      0.84 
 Bq                    4.85     -1.23      0.94 
 Bq                    4.85     -1.23      1.04 
 Bq                    4.85     -1.23      1.14 
 Bq                    4.85     -1.23      1.24 
 Bq                    4.85     -1.23      1.34 
 Bq                    4.85     -1.23      1.44 
 Bq                    4.85     -1.23      1.54 
 Bq                    4.85     -1.23      1.64 
 Bq                    4.85     -1.23      1.74 
 Bq                    4.85     -1.23      1.84 
 Bq                    4.85     -1.23      1.94 
 Bq                    4.85     -1.23      2.04 
 Bq                    4.85     -1.23      2.14 
 Bq                    4.85     -1.23      2.24 
 Bq                    4.85     -1.23      2.34 
 Bq                    4.85     -1.23      2.44 
 Bq                    4.85     -1.23      2.54 
 Bq                    4.85     -1.23      2.64 
 Bq                    4.85     -1.23      2.74 
 Bq                    4.85     -1.23      2.84 
 Bq                    4.85     -1.23      2.94 
 Bq                    4.85     -1.23      3.04 
 Bq                    4.85     -1.23      3.14 
 Bq                    4.85     -1.23      3.24 
 Bq                    4.85     -1.23      3.34 
 Bq                    4.85     -1.23      3.44 
 Bq                    4.85     -1.23      3.54 
 Bq                    4.85     -1.23      3.64 
 Bq                    4.85     -1.13     -2.26 
 Bq                    4.85     -1.13     -2.16 
 Bq                    4.85     -1.13     -2.06 
 Bq                    4.85     -1.13     -1.96 
 Bq                    4.85     -1.13     -1.86 
 Bq                    4.85     -1.13     -1.76 
 Bq                    4.85     -1.13     -1.66 
 Bq                    4.85     -1.13     -1.56 
 Bq                    4.85     -1.13     -1.46 
 Bq                    4.85     -1.13     -1.36 
 Bq                    4.85     -1.13     -1.26 
 Bq                    4.85     -1.13     -1.16 
 Bq                    4.85     -1.13     -1.06 
 Bq                    4.85     -1.13     -0.96 
 Bq                    4.85     -1.13     -0.86 
 Bq                    4.85     -1.13     -0.76 
 Bq                    4.85     -1.13     -0.66 
 Bq                    4.85     -1.13     -0.56 
 Bq                    4.85     -1.13     -0.46 
 Bq                    4.85     -1.13     -0.36 
 Bq                    4.85     -1.13     -0.26 
 Bq                    4.85     -1.13     -0.16 
 Bq                    4.85     -1.13     -0.06 
 Bq                    4.85     -1.13      0.04 
 Bq                    4.85     -1.13      0.14 
 Bq                    4.85     -1.13      0.24 
 Bq                    4.85     -1.13      0.34 
 Bq                    4.85     -1.13      0.44 
 Bq                    4.85     -1.13      0.54 
 Bq                    4.85     -1.13      0.64 
 Bq                    4.85     -1.13      0.74 
 Bq                    4.85     -1.13      0.84 
 Bq                    4.85     -1.13      0.94 
 Bq                    4.85     -1.13      1.04 
 Bq                    4.85     -1.13      1.14 
 Bq                    4.85     -1.13      1.24 
 Bq                    4.85     -1.13      1.34 
 Bq                    4.85     -1.13      1.44 
 Bq                    4.85     -1.13      1.54 
 Bq                    4.85     -1.13      1.64 
 Bq                    4.85     -1.13      1.74 
 Bq                    4.85     -1.13      1.84 
 Bq                    4.85     -1.13      1.94 
 Bq                    4.85     -1.13      2.04 
 Bq                    4.85     -1.13      2.14 
 Bq                    4.85     -1.13      2.24 
 Bq                    4.85     -1.13      2.34 
 Bq                    4.85     -1.13      2.44 
 Bq                    4.85     -1.13      2.54 
 Bq                    4.85     -1.13      2.64 
 Bq                    4.85     -1.13      2.74 
 Bq                    4.85     -1.13      2.84 
 Bq                    4.85     -1.13      2.94 
 Bq                    4.85     -1.13      3.04 
 Bq                    4.85     -1.13      3.14 
 Bq                    4.85     -1.13      3.24 
 Bq                    4.85     -1.13      3.34 
 Bq                    4.85     -1.13      3.44 
 Bq                    4.85     -1.13      3.54 
 Bq                    4.85     -1.13      3.64 
 Bq                    4.85     -1.03     -2.26 
 Bq                    4.85     -1.03     -2.16 
 Bq                    4.85     -1.03     -2.06 
 Bq                    4.85     -1.03     -1.96 
 Bq                    4.85     -1.03     -1.86 
 Bq                    4.85     -1.03     -1.76 
 Bq                    4.85     -1.03     -1.66 
 Bq                    4.85     -1.03     -1.56 
 Bq                    4.85     -1.03     -1.46 
 Bq                    4.85     -1.03     -1.36 
 Bq                    4.85     -1.03     -1.26 
 Bq                    4.85     -1.03     -1.16 
 Bq                    4.85     -1.03     -1.06 
 Bq                    4.85     -1.03     -0.96 
 Bq                    4.85     -1.03     -0.86 
 Bq                    4.85     -1.03     -0.76 
 Bq                    4.85     -1.03     -0.66 
 Bq                    4.85     -1.03     -0.56 
 Bq                    4.85     -1.03     -0.46 
 Bq                    4.85     -1.03     -0.36 
 Bq                    4.85     -1.03     -0.26 
 Bq                    4.85     -1.03     -0.16 
 Bq                    4.85     -1.03     -0.06 
 Bq                    4.85     -1.03      0.04 
 Bq                    4.85     -1.03      0.14 
 Bq                    4.85     -1.03      0.24 
 Bq                    4.85     -1.03      0.34 
 Bq                    4.85     -1.03      0.44 
 Bq                    4.85     -1.03      0.54 
 Bq                    4.85     -1.03      0.64 
 Bq                    4.85     -1.03      0.74 
 Bq                    4.85     -1.03      0.84 
 Bq                    4.85     -1.03      0.94 
 Bq                    4.85     -1.03      1.04 
 Bq                    4.85     -1.03      1.14 
 Bq                    4.85     -1.03      1.24 
 Bq                    4.85     -1.03      1.34 
 Bq                    4.85     -1.03      1.44 
 Bq                    4.85     -1.03      1.54 
 Bq                    4.85     -1.03      1.64 
 Bq                    4.85     -1.03      1.74 
 Bq                    4.85     -1.03      1.84 
 Bq                    4.85     -1.03      1.94 
 Bq                    4.85     -1.03      2.04 
 Bq                    4.85     -1.03      2.14 
 Bq                    4.85     -1.03      2.24 
 Bq                    4.85     -1.03      2.34 
 Bq                    4.85     -1.03      2.44 
 Bq                    4.85     -1.03      2.54 
 Bq                    4.85     -1.03      2.64 
 Bq                    4.85     -1.03      2.74 
 Bq                    4.85     -1.03      2.84 
 Bq                    4.85     -1.03      2.94 
 Bq                    4.85     -1.03      3.04 
 Bq                    4.85     -1.03      3.14 
 Bq                    4.85     -1.03      3.24 
 Bq                    4.85     -1.03      3.34 
 Bq                    4.85     -1.03      3.44 
 Bq                    4.85     -1.03      3.54 
 Bq                    4.85     -1.03      3.64 
 Bq                    4.85     -0.93     -2.26 
 Bq                    4.85     -0.93     -2.16 
 Bq                    4.85     -0.93     -2.06 
 Bq                    4.85     -0.93     -1.96 
 Bq                    4.85     -0.93     -1.86 
 Bq                    4.85     -0.93     -1.76 
 Bq                    4.85     -0.93     -1.66 
 Bq                    4.85     -0.93     -1.56 
 Bq                    4.85     -0.93     -1.46 
 Bq                    4.85     -0.93     -1.36 
 Bq                    4.85     -0.93     -1.26 
 Bq                    4.85     -0.93     -1.16 
 Bq                    4.85     -0.93     -1.06 
 Bq                    4.85     -0.93     -0.96 
 Bq                    4.85     -0.93     -0.86 
 Bq                    4.85     -0.93     -0.76 
 Bq                    4.85     -0.93     -0.66 
 Bq                    4.85     -0.93     -0.56 
 Bq                    4.85     -0.93     -0.46 
 Bq                    4.85     -0.93     -0.36 
 Bq                    4.85     -0.93     -0.26 
 Bq                    4.85     -0.93     -0.16 
 Bq                    4.85     -0.93     -0.06 
 Bq                    4.85     -0.93      0.04 
 Bq                    4.85     -0.93      0.14 
 Bq                    4.85     -0.93      0.24 
 Bq                    4.85     -0.93      0.34 
 Bq                    4.85     -0.93      0.44 
 Bq                    4.85     -0.93      0.54 
 Bq                    4.85     -0.93      0.64 
 Bq                    4.85     -0.93      0.74 
 Bq                    4.85     -0.93      0.84 
 Bq                    4.85     -0.93      0.94 
 Bq                    4.85     -0.93      1.04 
 Bq                    4.85     -0.93      1.14 
 Bq                    4.85     -0.93      1.24 
 Bq                    4.85     -0.93      1.34 
 Bq                    4.85     -0.93      1.44 
 Bq                    4.85     -0.93      1.54 
 Bq                    4.85     -0.93      1.64 
 Bq                    4.85     -0.93      1.74 
 Bq                    4.85     -0.93      1.84 
 Bq                    4.85     -0.93      1.94 
 Bq                    4.85     -0.93      2.04 
 Bq                    4.85     -0.93      2.14 
 Bq                    4.85     -0.93      2.24 
 Bq                    4.85     -0.93      2.34 
 Bq                    4.85     -0.93      2.44 
 Bq                    4.85     -0.93      2.54 
 Bq                    4.85     -0.93      2.64 
 Bq                    4.85     -0.93      2.74 
 Bq                    4.85     -0.93      2.84 
 Bq                    4.85     -0.93      2.94 
 Bq                    4.85     -0.93      3.04 
 Bq                    4.85     -0.93      3.14 
 Bq                    4.85     -0.93      3.24 
 Bq                    4.85     -0.93      3.34 
 Bq                    4.85     -0.93      3.44 
 Bq                    4.85     -0.93      3.54 
 Bq                    4.85     -0.93      3.64 
 Bq                    4.85     -0.83     -2.26 
 Bq                    4.85     -0.83     -2.16 
 Bq                    4.85     -0.83     -2.06 
 Bq                    4.85     -0.83     -1.96 
 Bq                    4.85     -0.83     -1.86 
 Bq                    4.85     -0.83     -1.76 
 Bq                    4.85     -0.83     -1.66 
 Bq                    4.85     -0.83     -1.56 
 Bq                    4.85     -0.83     -1.46 
 Bq                    4.85     -0.83     -1.36 
 Bq                    4.85     -0.83     -1.26 
 Bq                    4.85     -0.83     -1.16 
 Bq                    4.85     -0.83     -1.06 
 Bq                    4.85     -0.83     -0.96 
 Bq                    4.85     -0.83     -0.86 
 Bq                    4.85     -0.83     -0.76 
 Bq                    4.85     -0.83     -0.66 
 Bq                    4.85     -0.83     -0.56 
 Bq                    4.85     -0.83     -0.46 
 Bq                    4.85     -0.83     -0.36 
 Bq                    4.85     -0.83     -0.26 
 Bq                    4.85     -0.83     -0.16 
 Bq                    4.85     -0.83     -0.06 
 Bq                    4.85     -0.83      0.04 
 Bq                    4.85     -0.83      0.14 
 Bq                    4.85     -0.83      0.24 
 Bq                    4.85     -0.83      0.34 
 Bq                    4.85     -0.83      0.44 
 Bq                    4.85     -0.83      0.54 
 Bq                    4.85     -0.83      0.64 
 Bq                    4.85     -0.83      0.74 
 Bq                    4.85     -0.83      0.84 
 Bq                    4.85     -0.83      0.94 
 Bq                    4.85     -0.83      1.04 
 Bq                    4.85     -0.83      1.14 
 Bq                    4.85     -0.83      1.24 
 Bq                    4.85     -0.83      1.34 
 Bq                    4.85     -0.83      1.44 
 Bq                    4.85     -0.83      1.54 
 Bq                    4.85     -0.83      1.64 
 Bq                    4.85     -0.83      1.74 
 Bq                    4.85     -0.83      1.84 
 Bq                    4.85     -0.83      1.94 
 Bq                    4.85     -0.83      2.04 
 Bq                    4.85     -0.83      2.14 
 Bq                    4.85     -0.83      2.24 
 Bq                    4.85     -0.83      2.34 
 Bq                    4.85     -0.83      2.44 
 Bq                    4.85     -0.83      2.54 
 Bq                    4.85     -0.83      2.64 
 Bq                    4.85     -0.83      2.74 
 Bq                    4.85     -0.83      2.84 
 Bq                    4.85     -0.83      2.94 
 Bq                    4.85     -0.83      3.04 
 Bq                    4.85     -0.83      3.14 
 Bq                    4.85     -0.83      3.24 
 Bq                    4.85     -0.83      3.34 
 Bq                    4.85     -0.83      3.44 
 Bq                    4.85     -0.83      3.54 
 Bq                    4.85     -0.83      3.64 
 Bq                    4.85     -0.73     -2.26 
 Bq                    4.85     -0.73     -2.16 
 Bq                    4.85     -0.73     -2.06 
 Bq                    4.85     -0.73     -1.96 
 Bq                    4.85     -0.73     -1.86 
 Bq                    4.85     -0.73     -1.76 
 Bq                    4.85     -0.73     -1.66 
 Bq                    4.85     -0.73     -1.56 
 Bq                    4.85     -0.73     -1.46 
 Bq                    4.85     -0.73     -1.36 
 Bq                    4.85     -0.73     -1.26 
 Bq                    4.85     -0.73     -1.16 
 Bq                    4.85     -0.73     -1.06 
 Bq                    4.85     -0.73     -0.96 
 Bq                    4.85     -0.73     -0.86 
 Bq                    4.85     -0.73     -0.76 
 Bq                    4.85     -0.73     -0.66 
 Bq                    4.85     -0.73     -0.56 
 Bq                    4.85     -0.73     -0.46 
 Bq                    4.85     -0.73     -0.36 
 Bq                    4.85     -0.73     -0.26 
 Bq                    4.85     -0.73     -0.16 
 Bq                    4.85     -0.73     -0.06 
 Bq                    4.85     -0.73      0.04 
 Bq                    4.85     -0.73      0.14 
 Bq                    4.85     -0.73      0.24 
 Bq                    4.85     -0.73      0.34 
 Bq                    4.85     -0.73      0.44 
 Bq                    4.85     -0.73      0.54 
 Bq                    4.85     -0.73      0.64 
 Bq                    4.85     -0.73      0.74 
 Bq                    4.85     -0.73      0.84 
 Bq                    4.85     -0.73      0.94 
 Bq                    4.85     -0.73      1.04 
 Bq                    4.85     -0.73      1.14 
 Bq                    4.85     -0.73      1.24 
 Bq                    4.85     -0.73      1.34 
 Bq                    4.85     -0.73      1.44 
 Bq                    4.85     -0.73      1.54 
 Bq                    4.85     -0.73      1.64 
 Bq                    4.85     -0.73      1.74 
 Bq                    4.85     -0.73      1.84 
 Bq                    4.85     -0.73      1.94 
 Bq                    4.85     -0.73      2.04 
 Bq                    4.85     -0.73      2.14 
 Bq                    4.85     -0.73      2.24 
 Bq                    4.85     -0.73      2.34 
 Bq                    4.85     -0.73      2.44 
 Bq                    4.85     -0.73      2.54 
 Bq                    4.85     -0.73      2.64 
 Bq                    4.85     -0.73      2.74 
 Bq                    4.85     -0.73      2.84 
 Bq                    4.85     -0.73      2.94 
 Bq                    4.85     -0.73      3.04 
 Bq                    4.85     -0.73      3.14 
 Bq                    4.85     -0.73      3.24 
 Bq                    4.85     -0.73      3.34 
 Bq                    4.85     -0.73      3.44 
 Bq                    4.85     -0.73      3.54 
 Bq                    4.85     -0.73      3.64 
 Bq                    4.85     -0.63     -2.26 
 Bq                    4.85     -0.63     -2.16 
 Bq                    4.85     -0.63     -2.06 
 Bq                    4.85     -0.63     -1.96 
 Bq                    4.85     -0.63     -1.86 
 Bq                    4.85     -0.63     -1.76 
 Bq                    4.85     -0.63     -1.66 
 Bq                    4.85     -0.63     -1.56 
 Bq                    4.85     -0.63     -1.46 
 Bq                    4.85     -0.63     -1.36 
 Bq                    4.85     -0.63     -1.26 
 Bq                    4.85     -0.63     -1.16 
 Bq                    4.85     -0.63     -1.06 
 Bq                    4.85     -0.63     -0.96 
 Bq                    4.85     -0.63     -0.86 
 Bq                    4.85     -0.63     -0.76 
 Bq                    4.85     -0.63     -0.66 
 Bq                    4.85     -0.63     -0.56 
 Bq                    4.85     -0.63     -0.46 
 Bq                    4.85     -0.63     -0.36 
 Bq                    4.85     -0.63     -0.26 
 Bq                    4.85     -0.63     -0.16 
 Bq                    4.85     -0.63     -0.06 
 Bq                    4.85     -0.63      0.04 
 Bq                    4.85     -0.63      0.14 
 Bq                    4.85     -0.63      0.24 
 Bq                    4.85     -0.63      0.34 
 Bq                    4.85     -0.63      0.44 
 Bq                    4.85     -0.63      0.54 
 Bq                    4.85     -0.63      0.64 
 Bq                    4.85     -0.63      0.74 
 Bq                    4.85     -0.63      0.84 
 Bq                    4.85     -0.63      0.94 
 Bq                    4.85     -0.63      1.04 
 Bq                    4.85     -0.63      1.14 
 Bq                    4.85     -0.63      1.24 
 Bq                    4.85     -0.63      1.34 
 Bq                    4.85     -0.63      1.44 
 Bq                    4.85     -0.63      1.54 
 Bq                    4.85     -0.63      1.64 
 Bq                    4.85     -0.63      1.74 
 Bq                    4.85     -0.63      1.84 
 Bq                    4.85     -0.63      1.94 
 Bq                    4.85     -0.63      2.04 
 Bq                    4.85     -0.63      2.14 
 Bq                    4.85     -0.63      2.24 
 Bq                    4.85     -0.63      2.34 
 Bq                    4.85     -0.63      2.44 
 Bq                    4.85     -0.63      2.54 
 Bq                    4.85     -0.63      2.64 
 Bq                    4.85     -0.63      2.74 
 Bq                    4.85     -0.63      2.84 
 Bq                    4.85     -0.63      2.94 
 Bq                    4.85     -0.63      3.04 
 Bq                    4.85     -0.63      3.14 
 Bq                    4.85     -0.63      3.24 
 Bq                    4.85     -0.63      3.34 
 Bq                    4.85     -0.63      3.44 
 Bq                    4.85     -0.63      3.54 
 Bq                    4.85     -0.63      3.64 
 Bq                    4.85     -0.53     -2.26 
 Bq                    4.85     -0.53     -2.16 
 Bq                    4.85     -0.53     -2.06 
 Bq                    4.85     -0.53     -1.96 
 Bq                    4.85     -0.53     -1.86 
 Bq                    4.85     -0.53     -1.76 
 Bq                    4.85     -0.53     -1.66 
 Bq                    4.85     -0.53     -1.56 
 Bq                    4.85     -0.53     -1.46 
 Bq                    4.85     -0.53     -1.36 
 Bq                    4.85     -0.53     -1.26 
 Bq                    4.85     -0.53     -1.16 
 Bq                    4.85     -0.53     -1.06 
 Bq                    4.85     -0.53     -0.96 
 Bq                    4.85     -0.53     -0.86 
 Bq                    4.85     -0.53     -0.76 
 Bq                    4.85     -0.53     -0.66 
 Bq                    4.85     -0.53     -0.56 
 Bq                    4.85     -0.53     -0.46 
 Bq                    4.85     -0.53     -0.36 
 Bq                    4.85     -0.53     -0.26 
 Bq                    4.85     -0.53     -0.16 
 Bq                    4.85     -0.53     -0.06 
 Bq                    4.85     -0.53      0.04 
 Bq                    4.85     -0.53      0.14 
 Bq                    4.85     -0.53      0.24 
 Bq                    4.85     -0.53      0.34 
 Bq                    4.85     -0.53      0.44 
 Bq                    4.85     -0.53      0.54 
 Bq                    4.85     -0.53      0.64 
 Bq                    4.85     -0.53      0.74 
 Bq                    4.85     -0.53      0.84 
 Bq                    4.85     -0.53      0.94 
 Bq                    4.85     -0.53      1.04 
 Bq                    4.85     -0.53      1.14 
 Bq                    4.85     -0.53      1.24 
 Bq                    4.85     -0.53      1.34 
 Bq                    4.85     -0.53      1.44 
 Bq                    4.85     -0.53      1.54 
 Bq                    4.85     -0.53      1.64 
 Bq                    4.85     -0.53      1.74 
 Bq                    4.85     -0.53      1.84 
 Bq                    4.85     -0.53      1.94 
 Bq                    4.85     -0.53      2.04 
 Bq                    4.85     -0.53      2.14 
 Bq                    4.85     -0.53      2.24 
 Bq                    4.85     -0.53      2.34 
 Bq                    4.85     -0.53      2.44 
 Bq                    4.85     -0.53      2.54 
 Bq                    4.85     -0.53      2.64 
 Bq                    4.85     -0.53      2.74 
 Bq                    4.85     -0.53      2.84 
 Bq                    4.85     -0.53      2.94 
 Bq                    4.85     -0.53      3.04 
 Bq                    4.85     -0.53      3.14 
 Bq                    4.85     -0.53      3.24 
 Bq                    4.85     -0.53      3.34 
 Bq                    4.85     -0.53      3.44 
 Bq                    4.85     -0.53      3.54 
 Bq                    4.85     -0.53      3.64 
 Bq                    4.85     -0.43     -2.26 
 Bq                    4.85     -0.43     -2.16 
 Bq                    4.85     -0.43     -2.06 
 Bq                    4.85     -0.43     -1.96 
 Bq                    4.85     -0.43     -1.86 
 Bq                    4.85     -0.43     -1.76 
 Bq                    4.85     -0.43     -1.66 
 Bq                    4.85     -0.43     -1.56 
 Bq                    4.85     -0.43     -1.46 
 Bq                    4.85     -0.43     -1.36 
 Bq                    4.85     -0.43     -1.26 
 Bq                    4.85     -0.43     -1.16 
 Bq                    4.85     -0.43     -1.06 
 Bq                    4.85     -0.43     -0.96 
 Bq                    4.85     -0.43     -0.86 
 Bq                    4.85     -0.43     -0.76 
 Bq                    4.85     -0.43     -0.66 
 Bq                    4.85     -0.43     -0.56 
 Bq                    4.85     -0.43     -0.46 
 Bq                    4.85     -0.43     -0.36 
 Bq                    4.85     -0.43     -0.26 
 Bq                    4.85     -0.43     -0.16 
 Bq                    4.85     -0.43     -0.06 
 Bq                    4.85     -0.43      0.04 
 Bq                    4.85     -0.43      0.14 
 Bq                    4.85     -0.43      0.24 
 Bq                    4.85     -0.43      0.34 
 Bq                    4.85     -0.43      0.44 
 Bq                    4.85     -0.43      0.54 
 Bq                    4.85     -0.43      0.64 
 Bq                    4.85     -0.43      0.74 
 Bq                    4.85     -0.43      0.84 
 Bq                    4.85     -0.43      0.94 
 Bq                    4.85     -0.43      1.04 
 Bq                    4.85     -0.43      1.14 
 Bq                    4.85     -0.43      1.24 
 Bq                    4.85     -0.43      1.34 
 Bq                    4.85     -0.43      1.44 
 Bq                    4.85     -0.43      1.54 
 Bq                    4.85     -0.43      1.64 
 Bq                    4.85     -0.43      1.74 
 Bq                    4.85     -0.43      1.84 
 Bq                    4.85     -0.43      1.94 
 Bq                    4.85     -0.43      2.04 
 Bq                    4.85     -0.43      2.14 
 Bq                    4.85     -0.43      2.24 
 Bq                    4.85     -0.43      2.34 
 Bq                    4.85     -0.43      2.44 
 Bq                    4.85     -0.43      2.54 
 Bq                    4.85     -0.43      2.64 
 Bq                    4.85     -0.43      2.74 
 Bq                    4.85     -0.43      2.84 
 Bq                    4.85     -0.43      2.94 
 Bq                    4.85     -0.43      3.04 
 Bq                    4.85     -0.43      3.14 
 Bq                    4.85     -0.43      3.24 
 Bq                    4.85     -0.43      3.34 
 Bq                    4.85     -0.43      3.44 
 Bq                    4.85     -0.43      3.54 
 Bq                    4.85     -0.43      3.64 
 Bq                    4.85     -0.33     -2.26 
 Bq                    4.85     -0.33     -2.16 
 Bq                    4.85     -0.33     -2.06 
 Bq                    4.85     -0.33     -1.96 
 Bq                    4.85     -0.33     -1.86 
 Bq                    4.85     -0.33     -1.76 
 Bq                    4.85     -0.33     -1.66 
 Bq                    4.85     -0.33     -1.56 
 Bq                    4.85     -0.33     -1.46 
 Bq                    4.85     -0.33     -1.36 
 Bq                    4.85     -0.33     -1.26 
 Bq                    4.85     -0.33     -1.16 
 Bq                    4.85     -0.33     -1.06 
 Bq                    4.85     -0.33     -0.96 
 Bq                    4.85     -0.33     -0.86 
 Bq                    4.85     -0.33     -0.76 
 Bq                    4.85     -0.33     -0.66 
 Bq                    4.85     -0.33     -0.56 
 Bq                    4.85     -0.33     -0.46 
 Bq                    4.85     -0.33     -0.36 
 Bq                    4.85     -0.33     -0.26 
 Bq                    4.85     -0.33     -0.16 
 Bq                    4.85     -0.33     -0.06 
 Bq                    4.85     -0.33      0.04 
 Bq                    4.85     -0.33      0.14 
 Bq                    4.85     -0.33      0.24 
 Bq                    4.85     -0.33      0.34 
 Bq                    4.85     -0.33      0.44 
 Bq                    4.85     -0.33      0.54 
 Bq                    4.85     -0.33      0.64 
 Bq                    4.85     -0.33      0.74 
 Bq                    4.85     -0.33      0.84 
 Bq                    4.85     -0.33      0.94 
 Bq                    4.85     -0.33      1.04 
 Bq                    4.85     -0.33      1.14 
 Bq                    4.85     -0.33      1.24 
 Bq                    4.85     -0.33      1.34 
 Bq                    4.85     -0.33      1.44 
 Bq                    4.85     -0.33      1.54 
 Bq                    4.85     -0.33      1.64 
 Bq                    4.85     -0.33      1.74 
 Bq                    4.85     -0.33      1.84 
 Bq                    4.85     -0.33      1.94 
 Bq                    4.85     -0.33      2.04 
 Bq                    4.85     -0.33      2.14 
 Bq                    4.85     -0.33      2.24 
 Bq                    4.85     -0.33      2.34 
 Bq                    4.85     -0.33      2.44 
 Bq                    4.85     -0.33      2.54 
 Bq                    4.85     -0.33      2.64 
 Bq                    4.85     -0.33      2.74 
 Bq                    4.85     -0.33      2.84 
 Bq                    4.85     -0.33      2.94 
 Bq                    4.85     -0.33      3.04 
 Bq                    4.85     -0.33      3.14 
 Bq                    4.85     -0.33      3.24 
 Bq                    4.85     -0.33      3.34 
 Bq                    4.85     -0.33      3.44 
 Bq                    4.85     -0.33      3.54 
 Bq                    4.85     -0.33      3.64 
 Bq                    4.85     -0.23     -2.26 
 Bq                    4.85     -0.23     -2.16 
 Bq                    4.85     -0.23     -2.06 
 Bq                    4.85     -0.23     -1.96 
 Bq                    4.85     -0.23     -1.86 
 Bq                    4.85     -0.23     -1.76 
 Bq                    4.85     -0.23     -1.66 
 Bq                    4.85     -0.23     -1.56 
 Bq                    4.85     -0.23     -1.46 
 Bq                    4.85     -0.23     -1.36 
 Bq                    4.85     -0.23     -1.26 
 Bq                    4.85     -0.23     -1.16 
 Bq                    4.85     -0.23     -1.06 
 Bq                    4.85     -0.23     -0.96 
 Bq                    4.85     -0.23     -0.86 
 Bq                    4.85     -0.23     -0.76 
 Bq                    4.85     -0.23     -0.66 
 Bq                    4.85     -0.23     -0.56 
 Bq                    4.85     -0.23     -0.46 
 Bq                    4.85     -0.23     -0.36 
 Bq                    4.85     -0.23     -0.26 
 Bq                    4.85     -0.23     -0.16 
 Bq                    4.85     -0.23     -0.06 
 Bq                    4.85     -0.23      0.04 
 Bq                    4.85     -0.23      0.14 
 Bq                    4.85     -0.23      0.24 
 Bq                    4.85     -0.23      0.34 
 Bq                    4.85     -0.23      0.44 
 Bq                    4.85     -0.23      0.54 
 Bq                    4.85     -0.23      0.64 
 Bq                    4.85     -0.23      0.74 
 Bq                    4.85     -0.23      0.84 
 Bq                    4.85     -0.23      0.94 
 Bq                    4.85     -0.23      1.04 
 Bq                    4.85     -0.23      1.14 
 Bq                    4.85     -0.23      1.24 
 Bq                    4.85     -0.23      1.34 
 Bq                    4.85     -0.23      1.44 
 Bq                    4.85     -0.23      1.54 
 Bq                    4.85     -0.23      1.64 
 Bq                    4.85     -0.23      1.74 
 Bq                    4.85     -0.23      1.84 
 Bq                    4.85     -0.23      1.94 
 Bq                    4.85     -0.23      2.04 
 Bq                    4.85     -0.23      2.14 
 Bq                    4.85     -0.23      2.24 
 Bq                    4.85     -0.23      2.34 
 Bq                    4.85     -0.23      2.44 
 Bq                    4.85     -0.23      2.54 
 Bq                    4.85     -0.23      2.64 
 Bq                    4.85     -0.23      2.74 
 Bq                    4.85     -0.23      2.84 
 Bq                    4.85     -0.23      2.94 
 Bq                    4.85     -0.23      3.04 
 Bq                    4.85     -0.23      3.14 
 Bq                    4.85     -0.23      3.24 
 Bq                    4.85     -0.23      3.34 
 Bq                    4.85     -0.23      3.44 
 Bq                    4.85     -0.23      3.54 
 Bq                    4.85     -0.23      3.64 
 Bq                    4.85     -0.13     -2.26 
 Bq                    4.85     -0.13     -2.16 
 Bq                    4.85     -0.13     -2.06 
 Bq                    4.85     -0.13     -1.96 
 Bq                    4.85     -0.13     -1.86 
 Bq                    4.85     -0.13     -1.76 
 Bq                    4.85     -0.13     -1.66 
 Bq                    4.85     -0.13     -1.56 
 Bq                    4.85     -0.13     -1.46 
 Bq                    4.85     -0.13     -1.36 
 Bq                    4.85     -0.13     -1.26 
 Bq                    4.85     -0.13     -1.16 
 Bq                    4.85     -0.13     -1.06 
 Bq                    4.85     -0.13     -0.96 
 Bq                    4.85     -0.13     -0.86 
 Bq                    4.85     -0.13     -0.76 
 Bq                    4.85     -0.13     -0.66 
 Bq                    4.85     -0.13     -0.56 
 Bq                    4.85     -0.13     -0.46 
 Bq                    4.85     -0.13     -0.36 
 Bq                    4.85     -0.13     -0.26 
 Bq                    4.85     -0.13     -0.16 
 Bq                    4.85     -0.13     -0.06 
 Bq                    4.85     -0.13      0.04 
 Bq                    4.85     -0.13      0.14 
 Bq                    4.85     -0.13      0.24 
 Bq                    4.85     -0.13      0.34 
 Bq                    4.85     -0.13      0.44 
 Bq                    4.85     -0.13      0.54 
 Bq                    4.85     -0.13      0.64 
 Bq                    4.85     -0.13      0.74 
 Bq                    4.85     -0.13      0.84 
 Bq                    4.85     -0.13      0.94 
 Bq                    4.85     -0.13      1.04 
 Bq                    4.85     -0.13      1.14 
 Bq                    4.85     -0.13      1.24 
 Bq                    4.85     -0.13      1.34 
 Bq                    4.85     -0.13      1.44 
 Bq                    4.85     -0.13      1.54 
 Bq                    4.85     -0.13      1.64 
 Bq                    4.85     -0.13      1.74 
 Bq                    4.85     -0.13      1.84 
 Bq                    4.85     -0.13      1.94 
 Bq                    4.85     -0.13      2.04 
 Bq                    4.85     -0.13      2.14 
 Bq                    4.85     -0.13      2.24 
 Bq                    4.85     -0.13      2.34 
 Bq                    4.85     -0.13      2.44 
 Bq                    4.85     -0.13      2.54 
 Bq                    4.85     -0.13      2.64 
 Bq                    4.85     -0.13      2.74 
 Bq                    4.85     -0.13      2.84 
 Bq                    4.85     -0.13      2.94 
 Bq                    4.85     -0.13      3.04 
 Bq                    4.85     -0.13      3.14 
 Bq                    4.85     -0.13      3.24 
 Bq                    4.85     -0.13      3.34 
 Bq                    4.85     -0.13      3.44 
 Bq                    4.85     -0.13      3.54 
 Bq                    4.85     -0.13      3.64 
 Bq                    4.85     -0.03     -2.26 
 Bq                    4.85     -0.03     -2.16 
 Bq                    4.85     -0.03     -2.06 
 Bq                    4.85     -0.03     -1.96 
 Bq                    4.85     -0.03     -1.86 
 Bq                    4.85     -0.03     -1.76 
 Bq                    4.85     -0.03     -1.66 
 Bq                    4.85     -0.03     -1.56 
 Bq                    4.85     -0.03     -1.46 
 Bq                    4.85     -0.03     -1.36 
 Bq                    4.85     -0.03     -1.26 
 Bq                    4.85     -0.03     -1.16 
 Bq                    4.85     -0.03     -1.06 
 Bq                    4.85     -0.03     -0.96 
 Bq                    4.85     -0.03     -0.86 
 Bq                    4.85     -0.03     -0.76 
 Bq                    4.85     -0.03     -0.66 
 Bq                    4.85     -0.03     -0.56 
 Bq                    4.85     -0.03     -0.46 
 Bq                    4.85     -0.03     -0.36 
 Bq                    4.85     -0.03     -0.26 
 Bq                    4.85     -0.03     -0.16 
 Bq                    4.85     -0.03     -0.06 
 Bq                    4.85     -0.03      0.04 
 Bq                    4.85     -0.03      0.14 
 Bq                    4.85     -0.03      0.24 
 Bq                    4.85     -0.03      0.34 
 Bq                    4.85     -0.03      0.44 
 Bq                    4.85     -0.03      0.54 
 Bq                    4.85     -0.03      0.64 
 Bq                    4.85     -0.03      0.74 
 Bq                    4.85     -0.03      0.84 
 Bq                    4.85     -0.03      0.94 
 Bq                    4.85     -0.03      1.04 
 Bq                    4.85     -0.03      1.14 
 Bq                    4.85     -0.03      1.24 
 Bq                    4.85     -0.03      1.34 
 Bq                    4.85     -0.03      1.44 
 Bq                    4.85     -0.03      1.54 
 Bq                    4.85     -0.03      1.64 
 Bq                    4.85     -0.03      1.74 
 Bq                    4.85     -0.03      1.84 
 Bq                    4.85     -0.03      1.94 
 Bq                    4.85     -0.03      2.04 
 Bq                    4.85     -0.03      2.14 
 Bq                    4.85     -0.03      2.24 
 Bq                    4.85     -0.03      2.34 
 Bq                    4.85     -0.03      2.44 
 Bq                    4.85     -0.03      2.54 
 Bq                    4.85     -0.03      2.64 
 Bq                    4.85     -0.03      2.74 
 Bq                    4.85     -0.03      2.84 
 Bq                    4.85     -0.03      2.94 
 Bq                    4.85     -0.03      3.04 
 Bq                    4.85     -0.03      3.14 
 Bq                    4.85     -0.03      3.24 
 Bq                    4.85     -0.03      3.34 
 Bq                    4.85     -0.03      3.44 
 Bq                    4.85     -0.03      3.54 
 Bq                    4.85     -0.03      3.64 
 Bq                    4.85      0.07     -2.26 
 Bq                    4.85      0.07     -2.16 
 Bq                    4.85      0.07     -2.06 
 Bq                    4.85      0.07     -1.96 
 Bq                    4.85      0.07     -1.86 
 Bq                    4.85      0.07     -1.76 
 Bq                    4.85      0.07     -1.66 
 Bq                    4.85      0.07     -1.56 
 Bq                    4.85      0.07     -1.46 
 Bq                    4.85      0.07     -1.36 
 Bq                    4.85      0.07     -1.26 
 Bq                    4.85      0.07     -1.16 
 Bq                    4.85      0.07     -1.06 
 Bq                    4.85      0.07     -0.96 
 Bq                    4.85      0.07     -0.86 
 Bq                    4.85      0.07     -0.76 
 Bq                    4.85      0.07     -0.66 
 Bq                    4.85      0.07     -0.56 
 Bq                    4.85      0.07     -0.46 
 Bq                    4.85      0.07     -0.36 
 Bq                    4.85      0.07     -0.26 
 Bq                    4.85      0.07     -0.16 
 Bq                    4.85      0.07     -0.06 
 Bq                    4.85      0.07      0.04 
 Bq                    4.85      0.07      0.14 
 Bq                    4.85      0.07      0.24 
 Bq                    4.85      0.07      0.34 
 Bq                    4.85      0.07      0.44 
 Bq                    4.85      0.07      0.54 
 Bq                    4.85      0.07      0.64 
 Bq                    4.85      0.07      0.74 
 Bq                    4.85      0.07      0.84 
 Bq                    4.85      0.07      0.94 
 Bq                    4.85      0.07      1.04 
 Bq                    4.85      0.07      1.14 
 Bq                    4.85      0.07      1.24 
 Bq                    4.85      0.07      1.34 
 Bq                    4.85      0.07      1.44 
 Bq                    4.85      0.07      1.54 
 Bq                    4.85      0.07      1.64 
 Bq                    4.85      0.07      1.74 
 Bq                    4.85      0.07      1.84 
 Bq                    4.85      0.07      1.94 
 Bq                    4.85      0.07      2.04 
 Bq                    4.85      0.07      2.14 
 Bq                    4.85      0.07      2.24 
 Bq                    4.85      0.07      2.34 
 Bq                    4.85      0.07      2.44 
 Bq                    4.85      0.07      2.54 
 Bq                    4.85      0.07      2.64 
 Bq                    4.85      0.07      2.74 
 Bq                    4.85      0.07      2.84 
 Bq                    4.85      0.07      2.94 
 Bq                    4.85      0.07      3.04 
 Bq                    4.85      0.07      3.14 
 Bq                    4.85      0.07      3.24 
 Bq                    4.85      0.07      3.34 
 Bq                    4.85      0.07      3.44 
 Bq                    4.85      0.07      3.54 
 Bq                    4.85      0.07      3.64 
 Bq                    4.85      0.17     -2.26 
 Bq                    4.85      0.17     -2.16 
 Bq                    4.85      0.17     -2.06 
 Bq                    4.85      0.17     -1.96 
 Bq                    4.85      0.17     -1.86 
 Bq                    4.85      0.17     -1.76 
 Bq                    4.85      0.17     -1.66 
 Bq                    4.85      0.17     -1.56 
 Bq                    4.85      0.17     -1.46 
 Bq                    4.85      0.17     -1.36 
 Bq                    4.85      0.17     -1.26 
 Bq                    4.85      0.17     -1.16 
 Bq                    4.85      0.17     -1.06 
 Bq                    4.85      0.17     -0.96 
 Bq                    4.85      0.17     -0.86 
 Bq                    4.85      0.17     -0.76 
 Bq                    4.85      0.17     -0.66 
 Bq                    4.85      0.17     -0.56 
 Bq                    4.85      0.17     -0.46 
 Bq                    4.85      0.17     -0.36 
 Bq                    4.85      0.17     -0.26 
 Bq                    4.85      0.17     -0.16 
 Bq                    4.85      0.17     -0.06 
 Bq                    4.85      0.17      0.04 
 Bq                    4.85      0.17      0.14 
 Bq                    4.85      0.17      0.24 
 Bq                    4.85      0.17      0.34 
 Bq                    4.85      0.17      0.44 
 Bq                    4.85      0.17      0.54 
 Bq                    4.85      0.17      0.64 
 Bq                    4.85      0.17      0.74 
 Bq                    4.85      0.17      0.84 
 Bq                    4.85      0.17      0.94 
 Bq                    4.85      0.17      1.04 
 Bq                    4.85      0.17      1.14 
 Bq                    4.85      0.17      1.24 
[...]
 .57,3.64\Bq,0,4.85,2.67,-2.26\Bq,0,4.85,2.67,-2.16\Bq,0,4.85,2.67,-2.0
 6\Bq,0,4.85,2.67,-1.96\Bq,0,4.85,2.67,-1.86\Bq,0,4.85,2.67,-1.76\Bq,0,
 4.85,2.67,-1.66\Bq,0,4.85,2.67,-1.56\Bq,0,4.85,2.67,-1.46\Bq,0,4.85,2.
 67,-1.36\Bq,0,4.85,2.67,-1.26\Bq,0,4.85,2.67,-1.16\Bq,0,4.85,2.67,-1.0
 6\Bq,0,4.85,2.67,-0.96\Bq,0,4.85,2.67,-0.86\Bq,0,4.85,2.67,-0.76\Bq,0,
 4.85,2.67,-0.66\Bq,0,4.85,2.67,-0.56\Bq,0,4.85,2.67,-0.46\Bq,0,4.85,2.
 67,-0.36\Bq,0,4.85,2.67,-0.26\Bq,0,4.85,2.67,-0.16\Bq,0,4.85,2.67,-0.0
 6\Bq,0,4.85,2.67,0.04\Bq,0,4.85,2.67,0.14\Bq,0,4.85,2.67,0.24\Bq,0,4.8
 5,2.67,0.34\Bq,0,4.85,2.67,0.44\Bq,0,4.85,2.67,0.54\Bq,0,4.85,2.67,0.6
 4\Bq,0,4.85,2.67,0.74\Bq,0,4.85,2.67,0.84\Bq,0,4.85,2.67,0.94\Bq,0,4.8
 5,2.67,1.04\Bq,0,4.85,2.67,1.14\Bq,0,4.85,2.67,1.24\Bq,0,4.85,2.67,1.3
 4\Bq,0,4.85,2.67,1.44\Bq,0,4.85,2.67,1.54\Bq,0,4.85,2.67,1.64\Bq,0,4.8
 5,2.67,1.74\Bq,0,4.85,2.67,1.84\Bq,0,4.85,2.67,1.94\Bq,0,4.85,2.67,2.0
 4\Bq,0,4.85,2.67,2.14\Bq,0,4.85,2.67,2.24\Bq,0,4.85,2.67,2.34\Bq,0,4.8
 5,2.67,2.44\Bq,0,4.85,2.67,2.54\Bq,0,4.85,2.67,2.64\Bq,0,4.85,2.67,2.7
 4\Bq,0,4.85,2.67,2.84\Bq,0,4.85,2.67,2.94\Bq,0,4.85,2.67,3.04\Bq,0,4.8
 5,2.67,3.14\Bq,0,4.85,2.67,3.24\Bq,0,4.85,2.67,3.34\Bq,0,4.85,2.67,3.4
 4\Bq,0,4.85,2.67,3.54\Bq,0,4.85,2.67,3.64\Bq,0,4.85,2.77,-2.26\Bq,0,4.
 85,2.77,-2.16\Bq,0,4.85,2.77,-2.06\Bq,0,4.85,2.77,-1.96\Bq,0,4.85,2.77
 ,-1.86\Bq,0,4.85,2.77,-1.76\Bq,0,4.85,2.77,-1.66\Bq,0,4.85,2.77,-1.56\
 Bq,0,4.85,2.77,-1.46\Bq,0,4.85,2.77,-1.36\Bq,0,4.85,2.77,-1.26\Bq,0,4.
 85,2.77,-1.16\Bq,0,4.85,2.77,-1.06\Bq,0,4.85,2.77,-0.96\Bq,0,4.85,2.77
 ,-0.86\Bq,0,4.85,2.77,-0.76\Bq,0,4.85,2.77,-0.66\Bq,0,4.85,2.77,-0.56\
 Bq,0,4.85,2.77,-0.46\Bq,0,4.85,2.77,-0.36\Bq,0,4.85,2.77,-0.26\Bq,0,4.
 85,2.77,-0.16\Bq,0,4.85,2.77,-0.06\Bq,0,4.85,2.77,0.04\Bq,0,4.85,2.77,
 0.14\Bq,0,4.85,2.77,0.24\Bq,0,4.85,2.77,0.34\Bq,0,4.85,2.77,0.44\Bq,0,
 4.85,2.77,0.54\Bq,0,4.85,2.77,0.64\Bq,0,4.85,2.77,0.74\Bq,0,4.85,2.77,
 0.84\Bq,0,4.85,2.77,0.94\Bq,0,4.85,2.77,1.04\Bq,0,4.85,2.77,1.14\Bq,0,
 4.85,2.77,1.24\Bq,0,4.85,2.77,1.34\Bq,0,4.85,2.77,1.44\Bq,0,4.85,2.77,
 1.54\Bq,0,4.85,2.77,1.64\Bq,0,4.85,2.77,1.74\Bq,0,4.85,2.77,1.84\Bq,0,
 4.85,2.77,1.94\Bq,0,4.85,2.77,2.04\Bq,0,4.85,2.77,2.14\Bq,0,4.85,2.77,
 2.24\Bq,0,4.85,2.77,2.34\Bq,0,4.85,2.77,2.44\Bq,0,4.85,2.77,2.54\Bq,0,
 4.85,2.77,2.64\Bq,0,4.85,2.77,2.74\Bq,0,4.85,2.77,2.84\Bq,0,4.85,2.77,
 2.94\Bq,0,4.85,2.77,3.04\Bq,0,4.85,2.77,3.14\Bq,0,4.85,2.77,3.24\Bq,0,
 4.85,2.77,3.34\Bq,0,4.85,2.77,3.44\Bq,0,4.85,2.77,3.54\Bq,0,4.85,2.77,
 3.64\Bq,0,4.85,2.87,-2.26\Bq,0,4.85,2.87,-2.16\Bq,0,4.85,2.87,-2.06\Bq
 ,0,4.85,2.87,-1.96\Bq,0,4.85,2.87,-1.86\Bq,0,4.85,2.87,-1.76\Bq,0,4.85
 ,2.87,-1.66\Bq,0,4.85,2.87,-1.56\Bq,0,4.85,2.87,-1.46\Bq,0,4.85,2.87,-
 1.36\Bq,0,4.85,2.87,-1.26\Bq,0,4.85,2.87,-1.16\Bq,0,4.85,2.87,-1.06\Bq
 ,0,4.85,2.87,-0.96\Bq,0,4.85,2.87,-0.86\Bq,0,4.85,2.87,-0.76\Bq,0,4.85
 ,2.87,-0.66\Bq,0,4.85,2.87,-0.56\Bq,0,4.85,2.87,-0.46\Bq,0,4.85,2.87,-
 0.36\Bq,0,4.85,2.87,-0.26\Bq,0,4.85,2.87,-0.16\Bq,0,4.85,2.87,-0.06\Bq
 ,0,4.85,2.87,0.04\Bq,0,4.85,2.87,0.14\Bq,0,4.85,2.87,0.24\Bq,0,4.85,2.
 87,0.34\Bq,0,4.85,2.87,0.44\Bq,0,4.85,2.87,0.54\Bq,0,4.85,2.87,0.64\Bq
 ,0,4.85,2.87,0.74\Bq,0,4.85,2.87,0.84\Bq,0,4.85,2.87,0.94\Bq,0,4.85,2.
 87,1.04\Bq,0,4.85,2.87,1.14\Bq,0,4.85,2.87,1.24\Bq,0,4.85,2.87,1.34\Bq
 ,0,4.85,2.87,1.44\Bq,0,4.85,2.87,1.54\Bq,0,4.85,2.87,1.64\Bq,0,4.85,2.
 87,1.74\Bq,0,4.85,2.87,1.84\Bq,0,4.85,2.87,1.94\Bq,0,4.85,2.87,2.04\Bq
 ,0,4.85,2.87,2.14\Bq,0,4.85,2.87,2.24\Bq,0,4.85,2.87,2.34\Bq,0,4.85,2.
 87,2.44\Bq,0,4.85,2.87,2.54\Bq,0,4.85,2.87,2.64\Bq,0,4.85,2.87,2.74\Bq
 ,0,4.85,2.87,2.84\Bq,0,4.85,2.87,2.94\Bq,0,4.85,2.87,3.04\Bq,0,4.85,2.
 87,3.14\Bq,0,4.85,2.87,3.24\Bq,0,4.85,2.87,3.34\Bq,0,4.85,2.87,3.44\Bq
 ,0,4.85,2.87,3.54\Bq,0,4.85,2.87,3.64\Bq,0,4.85,2.97,-2.26\Bq,0,4.85,2
 .97,-2.16\Bq,0,4.85,2.97,-2.06\Bq,0,4.85,2.97,-1.96\Bq,0,4.85,2.97,-1.
 86\Bq,0,4.85,2.97,-1.76\Bq,0,4.85,2.97,-1.66\Bq,0,4.85,2.97,-1.56\Bq,0
 ,4.85,2.97,-1.46\Bq,0,4.85,2.97,-1.36\Bq,0,4.85,2.97,-1.26\Bq,0,4.85,2
 .97,-1.16\Bq,0,4.85,2.97,-1.06\Bq,0,4.85,2.97,-0.96\Bq,0,4.85,2.97,-0.
 86\Bq,0,4.85,2.97,-0.76\Bq,0,4.85,2.97,-0.66\Bq,0,4.85,2.97,-0.56\Bq,0
 ,4.85,2.97,-0.46\Bq,0,4.85,2.97,-0.36\Bq,0,4.85,2.97,-0.26\Bq,0,4.85,2
 .97,-0.16\Bq,0,4.85,2.97,-0.06\Bq,0,4.85,2.97,0.04\Bq,0,4.85,2.97,0.14
 \Bq,0,4.85,2.97,0.24\Bq,0,4.85,2.97,0.34\Bq,0,4.85,2.97,0.44\Bq,0,4.85
 ,2.97,0.54\Bq,0,4.85,2.97,0.64\Bq,0,4.85,2.97,0.74\Bq,0,4.85,2.97,0.84
 \Bq,0,4.85,2.97,0.94\Bq,0,4.85,2.97,1.04\Bq,0,4.85,2.97,1.14\Bq,0,4.85
 ,2.97,1.24\Bq,0,4.85,2.97,1.34\Bq,0,4.85,2.97,1.44\Bq,0,4.85,2.97,1.54
 \Bq,0,4.85,2.97,1.64\Bq,0,4.85,2.97,1.74\Bq,0,4.85,2.97,1.84\Bq,0,4.85
 ,2.97,1.94\Bq,0,4.85,2.97,2.04\Bq,0,4.85,2.97,2.14\Bq,0,4.85,2.97,2.24
 \Bq,0,4.85,2.97,2.34\Bq,0,4.85,2.97,2.44\Bq,0,4.85,2.97,2.54\Bq,0,4.85
 ,2.97,2.64\Bq,0,4.85,2.97,2.74\Bq,0,4.85,2.97,2.84\Bq,0,4.85,2.97,2.94
 \Bq,0,4.85,2.97,3.04\Bq,0,4.85,2.97,3.14\Bq,0,4.85,2.97,3.24\Bq,0,4.85
 ,2.97,3.34\Bq,0,4.85,2.97,3.44\Bq,0,4.85,2.97,3.54\Bq,0,4.85,2.97,3.64
 \Bq,0,4.85,3.07,-2.26\Bq,0,4.85,3.07,-2.16\Bq,0,4.85,3.07,-2.06\Bq,0,4
 .85,3.07,-1.96\Bq,0,4.85,3.07,-1.86\Bq,0,4.85,3.07,-1.76\Bq,0,4.85,3.0
 7,-1.66\Bq,0,4.85,3.07,-1.56\Bq,0,4.85,3.07,-1.46\Bq,0,4.85,3.07,-1.36
 \Bq,0,4.85,3.07,-1.26\Bq,0,4.85,3.07,-1.16\Bq,0,4.85,3.07,-1.06\Bq,0,4
 .85,3.07,-0.96\Bq,0,4.85,3.07,-0.86\Bq,0,4.85,3.07,-0.76\Bq,0,4.85,3.0
 7,-0.66\Bq,0,4.85,3.07,-0.56\Bq,0,4.85,3.07,-0.46\Bq,0,4.85,3.07,-0.36
 \Bq,0,4.85,3.07,-0.26\Bq,0,4.85,3.07,-0.16\Bq,0,4.85,3.07,-0.06\Bq,0,4
 .85,3.07,0.04\Bq,0,4.85,3.07,0.14\Bq,0,4.85,3.07,0.24\Bq,0,4.85,3.07,0
 .34\Bq,0,4.85,3.07,0.44\Bq,0,4.85,3.07,0.54\Bq,0,4.85,3.07,0.64\Bq,0,4
 .85,3.07,0.74\Bq,0,4.85,3.07,0.84\Bq,0,4.85,3.07,0.94\Bq,0,4.85,3.07,1
 .04\Bq,0,4.85,3.07,1.14\Bq,0,4.85,3.07,1.24\Bq,0,4.85,3.07,1.34\Bq,0,4
 .85,3.07,1.44\Bq,0,4.85,3.07,1.54\Bq,0,4.85,3.07,1.64\Bq,0,4.85,3.07,1
 .74\Bq,0,4.85,3.07,1.84\Bq,0,4.85,3.07,1.94\Bq,0,4.85,3.07,2.04\Bq,0,4
 .85,3.07,2.14\Bq,0,4.85,3.07,2.24\Bq,0,4.85,3.07,2.34\Bq,0,4.85,3.07,2
 .44\Bq,0,4.85,3.07,2.54\Bq,0,4.85,3.07,2.64\Bq,0,4.85,3.07,2.74\Bq,0,4
 .85,3.07,2.84\Bq,0,4.85,3.07,2.94\Bq,0,4.85,3.07,3.04\Bq,0,4.85,3.07,3
 .14\Bq,0,4.85,3.07,3.24\Bq,0,4.85,3.07,3.34\Bq,0,4.85,3.07,3.44\Bq,0,4
 .85,3.07,3.54\Bq,0,4.85,3.07,3.64\Bq,0,4.85,3.17,-2.26\Bq,0,4.85,3.17,
 -2.16\Bq,0,4.85,3.17,-2.06\Bq,0,4.85,3.17,-1.96\Bq,0,4.85,3.17,-1.86\B
 q,0,4.85,3.17,-1.76\Bq,0,4.85,3.17,-1.66\Bq,0,4.85,3.17,-1.56\Bq,0,4.8
 5,3.17,-1.46\Bq,0,4.85,3.17,-1.36\Bq,0,4.85,3.17,-1.26\Bq,0,4.85,3.17,
 -1.16\Bq,0,4.85,3.17,-1.06\Bq,0,4.85,3.17,-0.96\Bq,0,4.85,3.17,-0.86\B
 q,0,4.85,3.17,-0.76\Bq,0,4.85,3.17,-0.66\Bq,0,4.85,3.17,-0.56\Bq,0,4.8
 5,3.17,-0.46\Bq,0,4.85,3.17,-0.36\Bq,0,4.85,3.17,-0.26\Bq,0,4.85,3.17,
 -0.16\Bq,0,4.85,3.17,-0.06\Bq,0,4.85,3.17,0.04\Bq,0,4.85,3.17,0.14\Bq,
 0,4.85,3.17,0.24\Bq,0,4.85,3.17,0.34\Bq,0,4.85,3.17,0.44\Bq,0,4.85,3.1
 7,0.54\Bq,0,4.85,3.17,0.64\Bq,0,4.85,3.17,0.74\Bq,0,4.85,3.17,0.84\Bq,
 0,4.85,3.17,0.94\Bq,0,4.85,3.17,1.04\Bq,0,4.85,3.17,1.14\Bq,0,4.85,3.1
 7,1.24\Bq,0,4.85,3.17,1.34\Bq,0,4.85,3.17,1.44\Bq,0,4.85,3.17,1.54\Bq,
 0,4.85,3.17,1.64\Bq,0,4.85,3.17,1.74\Bq,0,4.85,3.17,1.84\Bq,0,4.85,3.1
 7,1.94\Bq,0,4.85,3.17,2.04\Bq,0,4.85,3.17,2.14\Bq,0,4.85,3.17,2.24\Bq,
 0,4.85,3.17,2.34\Bq,0,4.85,3.17,2.44\Bq,0,4.85,3.17,2.54\Bq,0,4.85,3.1
 7,2.64\Bq,0,4.85,3.17,2.74\Bq,0,4.85,3.17,2.84\Bq,0,4.85,3.17,2.94\Bq,
 0,4.85,3.17,3.04\Bq,0,4.85,3.17,3.14\Bq,0,4.85,3.17,3.24\Bq,0,4.85,3.1
 7,3.34\Bq,0,4.85,3.17,3.44\Bq,0,4.85,3.17,3.54\Bq,0,4.85,3.17,3.64\Bq,
 0,4.85,3.27,-2.26\Bq,0,4.85,3.27,-2.16\Bq,0,4.85,3.27,-2.06\Bq,0,4.85,
 3.27,-1.96\Bq,0,4.85,3.27,-1.86\Bq,0,4.85,3.27,-1.76\Bq,0,4.85,3.27,-1
 .66\Bq,0,4.85,3.27,-1.56\Bq,0,4.85,3.27,-1.46\Bq,0,4.85,3.27,-1.36\Bq,
 0,4.85,3.27,-1.26\Bq,0,4.85,3.27,-1.16\Bq,0,4.85,3.27,-1.06\Bq,0,4.85,
 3.27,-0.96\Bq,0,4.85,3.27,-0.86\Bq,0,4.85,3.27,-0.76\Bq,0,4.85,3.27,-0
 .66\Bq,0,4.85,3.27,-0.56\Bq,0,4.85,3.27,-0.46\Bq,0,4.85,3.27,-0.36\Bq,
 0,4.85,3.27,-0.26\Bq,0,4.85,3.27,-0.16\Bq,0,4.85,3.27,-0.06\Bq,0,4.85,
 3.27,0.04\Bq,0,4.85,3.27,0.14\Bq,0,4.85,3.27,0.24\Bq,0,4.85,3.27,0.34\
 Bq,0,4.85,3.27,0.44\Bq,0,4.85,3.27,0.54\Bq,0,4.85,3.27,0.64\Bq,0,4.85,
 3.27,0.74\Bq,0,4.85,3.27,0.84\Bq,0,4.85,3.27,0.94\Bq,0,4.85,3.27,1.04\
 Bq,0,4.85,3.27,1.14\Bq,0,4.85,3.27,1.24\Bq,0,4.85,3.27,1.34\Bq,0,4.85,
 3.27,1.44\Bq,0,4.85,3.27,1.54\Bq,0,4.85,3.27,1.64\Bq,0,4.85,3.27,1.74\
 Bq,0,4.85,3.27,1.84\Bq,0,4.85,3.27,1.94\Bq,0,4.85,3.27,2.04\Bq,0,4.85,
 3.27,2.14\Bq,0,4.85,3.27,2.24\Bq,0,4.85,3.27,2.34\Bq,0,4.85,3.27,2.44\
 Bq,0,4.85,3.27,2.54\Bq,0,4.85,3.27,2.64\Bq,0,4.85,3.27,2.74\Bq,0,4.85,
 3.27,2.84\Bq,0,4.85,3.27,2.94\Bq,0,4.85,3.27,3.04\Bq,0,4.85,3.27,3.14\
 Bq,0,4.85,3.27,3.24\Bq,0,4.85,3.27,3.34\Bq,0,4.85,3.27,3.44\Bq,0,4.85,
 3.27,3.54\Bq,0,4.85,3.27,3.64\Bq,0,4.85,3.37,-2.26\Bq,0,4.85,3.37,-2.1
 6\Bq,0,4.85,3.37,-2.06\Bq,0,4.85,3.37,-1.96\Bq,0,4.85,3.37,-1.86\Bq,0,
 4.85,3.37,-1.76\Bq,0,4.85,3.37,-1.66\Bq,0,4.85,3.37,-1.56\Bq,0,4.85,3.
 37,-1.46\Bq,0,4.85,3.37,-1.36\Bq,0,4.85,3.37,-1.26\Bq,0,4.85,3.37,-1.1
 6\Bq,0,4.85,3.37,-1.06\Bq,0,4.85,3.37,-0.96\Bq,0,4.85,3.37,-0.86\Bq,0,
 4.85,3.37,-0.76\Bq,0,4.85,3.37,-0.66\Bq,0,4.85,3.37,-0.56\Bq,0,4.85,3.
 37,-0.46\Bq,0,4.85,3.37,-0.36\Bq,0,4.85,3.37,-0.26\Bq,0,4.85,3.37,-0.1
 6\Bq,0,4.85,3.37,-0.06\Bq,0,4.85,3.37,0.04\Bq,0,4.85,3.37,0.14\Bq,0,4.
 85,3.37,0.24\Bq,0,4.85,3.37,0.34\Bq,0,4.85,3.37,0.44\Bq,0,4.85,3.37,0.
 54\Bq,0,4.85,3.37,0.64\Bq,0,4.85,3.37,0.74\Bq,0,4.85,3.37,0.84\Bq,0,4.
 85,3.37,0.94\Bq,0,4.85,3.37,1.04\Bq,0,4.85,3.37,1.14\Bq,0,4.85,3.37,1.
 24\Bq,0,4.85,3.37,1.34\Bq,0,4.85,3.37,1.44\Bq,0,4.85,3.37,1.54\Bq,0,4.
 85,3.37,1.64\Bq,0,4.85,3.37,1.74\Bq,0,4.85,3.37,1.84\Bq,0,4.85,3.37,1.
 94\Bq,0,4.85,3.37,2.04\Bq,0,4.85,3.37,2.14\Bq,0,4.85,3.37,2.24\Bq,0,4.
 85,3.37,2.34\Bq,0,4.85,3.37,2.44\Bq,0,4.85,3.37,2.54\Bq,0,4.85,3.37,2.
 64\Bq,0,4.85,3.37,2.74\Bq,0,4.85,3.37,2.84\Bq,0,4.85,3.37,2.94\Bq,0,4.
 85,3.37,3.04\Bq,0,4.85,3.37,3.14\Bq,0,4.85,3.37,3.24\Bq,0,4.85,3.37,3.
 34\Bq,0,4.85,3.37,3.44\Bq,0,4.85,3.37,3.54\Bq,0,4.85,3.37,3.64\Bq,0,4.
 85,3.47,-2.26\Bq,0,4.85,3.47,-2.16\Bq,0,4.85,3.47,-2.06\Bq,0,4.85,3.47
 ,-1.96\Bq,0,4.85,3.47,-1.86\Bq,0,4.85,3.47,-1.76\Bq,0,4.85,3.47,-1.66\
 Bq,0,4.85,3.47,-1.56\Bq,0,4.85,3.47,-1.46\Bq,0,4.85,3.47,-1.36\Bq,0,4.
 85,3.47,-1.26\Bq,0,4.85,3.47,-1.16\Bq,0,4.85,3.47,-1.06\Bq,0,4.85,3.47
 ,-0.96\Bq,0,4.85,3.47,-0.86\Bq,0,4.85,3.47,-0.76\Bq,0,4.85,3.47,-0.66\
 Bq,0,4.85,3.47,-0.56\Bq,0,4.85,3.47,-0.46\Bq,0,4.85,3.47,-0.36\Bq,0,4.
 85,3.47,-0.26\Bq,0,4.85,3.47,-0.16\Bq,0,4.85,3.47,-0.06\Bq,0,4.85,3.47
 ,0.04\Bq,0,4.85,3.47,0.14\Bq,0,4.85,3.47,0.24\Bq,0,4.85,3.47,0.34\Bq,0
 ,4.85,3.47,0.44\Bq,0,4.85,3.47,0.54\Bq,0,4.85,3.47,0.64\Bq,0,4.85,3.47
 ,0.74\Bq,0,4.85,3.47,0.84\Bq,0,4.85,3.47,0.94\Bq,0,4.85,3.47,1.04\Bq,0
 ,4.85,3.47,1.14\Bq,0,4.85,3.47,1.24\Bq,0,4.85,3.47,1.34\Bq,0,4.85,3.47
 ,1.44\Bq,0,4.85,3.47,1.54\Bq,0,4.85,3.47,1.64\Bq,0,4.85,3.47,1.74\Bq,0
 ,4.85,3.47,1.84\Bq,0,4.85,3.47,1.94\Bq,0,4.85,3.47,2.04\Bq,0,4.85,3.47
 ,2.14\Bq,0,4.85,3.47,2.24\Bq,0,4.85,3.47,2.34\Bq,0,4.85,3.47,2.44\Bq,0
 ,4.85,3.47,2.54\Bq,0,4.85,3.47,2.64\Bq,0,4.85,3.47,2.74\Bq,0,4.85,3.47
 ,2.84\Bq,0,4.85,3.47,2.94\Bq,0,4.85,3.47,3.04\Bq,0,4.85,3.47,3.14\Bq,0
 ,4.85,3.47,3.24\Bq,0,4.85,3.47,3.34\Bq,0,4.85,3.47,3.44\Bq,0,4.85,3.47
 ,3.54\Bq,0,4.85,3.47,3.64\Bq,0,4.85,3.57,-2.26\Bq,0,4.85,3.57,-2.16\Bq
 ,0,4.85,3.57,-2.06\Bq,0,4.85,3.57,-1.96\Bq,0,4.85,3.57,-1.86\Bq,0,4.85
 ,3.57,-1.76\Bq,0,4.85,3.57,-1.66\Bq,0,4.85,3.57,-1.56\Bq,0,4.85,3.57,-
 1.46\Bq,0,4.85,3.57,-1.36\Bq,0,4.85,3.57,-1.26\Bq,0,4.85,3.57,-1.16\Bq
 ,0,4.85,3.57,-1.06\Bq,0,4.85,3.57,-0.96\Bq,0,4.85,3.57,-0.86\Bq,0,4.85
 ,3.57,-0.76\Bq,0,4.85,3.57,-0.66\Bq,0,4.85,3.57,-0.56\Bq,0,4.85,3.57,-
 0.46\Bq,0,4.85,3.57,-0.36\Bq,0,4.85,3.57,-0.26\Bq,0,4.85,3.57,-0.16\Bq
 ,0,4.85,3.57,-0.06\Bq,0,4.85,3.57,0.04\Bq,0,4.85,3.57,0.14\Bq,0,4.85,3
 .57,0.24\Bq,0,4.85,3.57,0.34\Bq,0,4.85,3.57,0.44\Bq,0,4.85,3.57,0.54\B
 q,0,4.85,3.57,0.64\Bq,0,4.85,3.57,0.74\Bq,0,4.85,3.57,0.84\Bq,0,4.85,3
 .57,0.94\Bq,0,4.85,3.57,1.04\Bq,0,4.85,3.57,1.14\Bq,0,4.85,3.57,1.24\B
 q,0,4.85,3.57,1.34\Bq,0,4.85,3.57,1.44\Bq,0,4.85,3.57,1.54\Bq,0,4.85,3
 .57,1.64\Bq,0,4.85,3.57,1.74\Bq,0,4.85,3.57,1.84\Bq,0,4.85,3.57,1.94\B
 q,0,4.85,3.57,2.04\Bq,0,4.85,3.57,2.14\Bq,0,4.85,3.57,2.24\Bq,0,4.85,3
 .57,2.34\Bq,0,4.85,3.57,2.44\Bq,0,4.85,3.57,2.54\Bq,0,4.85,3.57,2.64\B
 q,0,4.85,3.57,2.74\Bq,0,4.85,3.57,2.84\Bq,0,4.85,3.57,2.94\Bq,0,4.85,3
 .57,3.04\Bq,0,4.85,3.57,3.14\Bq,0,4.85,3.57,3.24\Bq,0,4.85,3.57,3.34\B
 q,0,4.85,3.57,3.44\Bq,0,4.85,3.57,3.54\Bq,0,4.85,3.57,3.64\Bq,0,4.85,3
 .67,-2.26\Bq,0,4.85,3.67,-2.16\Bq,0,4.85,3.67,-2.06\Bq,0,4.85,3.67,-1.
 96\Bq,0,4.85,3.67,-1.86\Bq,0,4.85,3.67,-1.76\Bq,0,4.85,3.67,-1.66\Bq,0
 ,4.85,3.67,-1.56\Bq,0,4.85,3.67,-1.46\Bq,0,4.85,3.67,-1.36\Bq,0,4.85,3
 .67,-1.26\Bq,0,4.85,3.67,-1.16\Bq,0,4.85,3.67,-1.06\Bq,0,4.85,3.67,-0.
 96\Bq,0,4.85,3.67,-0.86\Bq,0,4.85,3.67,-0.76\Bq,0,4.85,3.67,-0.66\Bq,0
 ,4.85,3.67,-0.56\Bq,0,4.85,3.67,-0.46\Bq,0,4.85,3.67,-0.36\Bq,0,4.85,3
 .67,-0.26\Bq,0,4.85,3.67,-0.16\Bq,0,4.85,3.67,-0.06\Bq,0,4.85,3.67,0.0
 4\Bq,0,4.85,3.67,0.14\Bq,0,4.85,3.67,0.24\Bq,0,4.85,3.67,0.34\Bq,0,4.8
 5,3.67,0.44\Bq,0,4.85,3.67,0.54\Bq,0,4.85,3.67,0.64\Bq,0,4.85,3.67,0.7
 4\Bq,0,4.85,3.67,0.84\Bq,0,4.85,3.67,0.94\Bq,0,4.85,3.67,1.04\Bq,0,4.8
 5,3.67,1.14\Bq,0,4.85,3.67,1.24\Bq,0,4.85,3.67,1.34\Bq,0,4.85,3.67,1.4
 4\Bq,0,4.85,3.67,1.54\Bq,0,4.85,3.67,1.64\Bq,0,4.85,3.67,1.74\Bq,0,4.8
 5,3.67,1.84\Bq,0,4.85,3.67,1.94\Bq,0,4.85,3.67,2.04\Bq,0,4.85,3.67,2.1
 4\Bq,0,4.85,3.67,2.24\Bq,0,4.85,3.67,2.34\Bq,0,4.85,3.67,2.44\Bq,0,4.8
 5,3.67,2.54\Bq,0,4.85,3.67,2.64\Bq,0,4.85,3.67,2.74\Bq,0,4.85,3.67,2.8
 4\Bq,0,4.85,3.67,2.94\Bq,0,4.85,3.67,3.04\Bq,0,4.85,3.67,3.14\Bq,0,4.8
 5,3.67,3.24\Bq,0,4.85,3.67,3.34\Bq,0,4.85,3.67,3.44\Bq,0,4.85,3.67,3.5
 4\Bq,0,4.85,3.67,3.64\Bq,0,4.85,3.77,-2.26\Bq,0,4.85,3.77,-2.16\Bq,0,4
 .85,3.77,-2.06\Bq,0,4.85,3.77,-1.96\Bq,0,4.85,3.77,-1.86\Bq,0,4.85,3.7
 7,-1.76\Bq,0,4.85,3.77,-1.66\Bq,0,4.85,3.77,-1.56\Bq,0,4.85,3.77,-1.46
 \Bq,0,4.85,3.77,-1.36\Bq,0,4.85,3.77,-1.26\Bq,0,4.85,3.77,-1.16\Bq,0,4
 .85,3.77,-1.06\Bq,0,4.85,3.77,-0.96\Bq,0,4.85,3.77,-0.86\Bq,0,4.85,3.7
 7,-0.76\Bq,0,4.85,3.77,-0.66\Bq,0,4.85,3.77,-0.56\Bq,0,4.85,3.77,-0.46
 \Bq,0,4.85,3.77,-0.36\Bq,0,4.85,3.77,-0.26\Bq,0,4.85,3.77,-0.16\Bq,0,4
 .85,3.77,-0.06\Bq,0,4.85,3.77,0.04\Bq,0,4.85,3.77,0.14\Bq,0,4.85,3.77,
 0.24\Bq,0,4.85,3.77,0.34\Bq,0,4.85,3.77,0.44\Bq,0,4.85,3.77,0.54\Bq,0,
 4.85,3.77,0.64\Bq,0,4.85,3.77,0.74\Bq,0,4.85,3.77,0.84\Bq,0,4.85,3.77,
 0.94\Bq,0,4.85,3.77,1.04\Bq,0,4.85,3.77,1.14\Bq,0,4.85,3.77,1.24\Bq,0,
 4.85,3.77,1.34\Bq,0,4.85,3.77,1.44\Bq,0,4.85,3.77,1.54\Bq,0,4.85,3.77,
 1.64\Bq,0,4.85,3.77,1.74\Bq,0,4.85,3.77,1.84\Bq,0,4.85,3.77,1.94\Bq,0,
 4.85,3.77,2.04\Bq,0,4.85,3.77,2.14\Bq,0,4.85,3.77,2.24\Bq,0,4.85,3.77,
 2.34\Bq,0,4.85,3.77,2.44\Bq,0,4.85,3.77,2.54\Bq,0,4.85,3.77,2.64\Bq,0,
 4.85,3.77,2.74\Bq,0,4.85,3.77,2.84\Bq,0,4.85,3.77,2.94\Bq,0,4.85,3.77,
 3.04\Bq,0,4.85,3.77,3.14\Bq,0,4.85,3.77,3.24\Bq,0,4.85,3.77,3.34\Bq,0,
 4.85,3.77,3.44\Bq,0,4.85,3.77,3.54\Bq,0,4.85,3.77,3.64\Bq,0,4.85,3.87,
 -2.26\Bq,0,4.85,3.87,-2.16\Bq,0,4.85,3.87,-2.06\Bq,0,4.85,3.87,-1.96\B
 q,0,4.85,3.87,-1.86\Bq,0,4.85,3.87,-1.76\Bq,0,4.85,3.87,-1.66\Bq,0,4.8
 5,3.87,-1.56\Bq,0,4.85,3.87,-1.46\Bq,0,4.85,3.87,-1.36\Bq,0,4.85,3.87,
 -1.26\Bq,0,4.85,3.87,-1.16\Bq,0,4.85,3.87,-1.06\Bq,0,4.85,3.87,-0.96\B
 q,0,4.85,3.87,-0.86\Bq,0,4.85,3.87,-0.76\Bq,0,4.85,3.87,-0.66\Bq,0,4.8
 5,3.87,-0.56\Bq,0,4.85,3.87,-0.46\Bq,0,4.85,3.87,-0.36\Bq,0,4.85,3.87,
 -0.26\Bq,0,4.85,3.87,-0.16\Bq,0,4.85,3.87,-0.06\Bq,0,4.85,3.87,0.04\Bq
 ,0,4.85,3.87,0.14\Bq,0,4.85,3.87,0.24\Bq,0,4.85,3.87,0.34\Bq,0,4.85,3.
 87,0.44\Bq,0,4.85,3.87,0.54\Bq,0,4.85,3.87,0.64\Bq,0,4.85,3.87,0.74\Bq
 ,0,4.85,3.87,0.84\Bq,0,4.85,3.87,0.94\Bq,0,4.85,3.87,1.04\Bq,0,4.85,3.
 87,1.14\Bq,0,4.85,3.87,1.24\Bq,0,4.85,3.87,1.34\Bq,0,4.85,3.87,1.44\Bq
 ,0,4.85,3.87,1.54\Bq,0,4.85,3.87,1.64\Bq,0,4.85,3.87,1.74\Bq,0,4.85,3.
 87,1.84\Bq,0,4.85,3.87,1.94\Bq,0,4.85,3.87,2.04\Bq,0,4.85,3.87,2.14\Bq
 ,0,4.85,3.87,2.24\Bq,0,4.85,3.87,2.34\Bq,0,4.85,3.87,2.44\Bq,0,4.85,3.
 87,2.54\Bq,0,4.85,3.87,2.64\Bq,0,4.85,3.87,2.74\Bq,0,4.85,3.87,2.84\Bq
 ,0,4.85,3.87,2.94\Bq,0,4.85,3.87,3.04\Bq,0,4.85,3.87,3.14\Bq,0,4.85,3.
 87,3.24\Bq,0,4.85,3.87,3.34\Bq,0,4.85,3.87,3.44\Bq,0,4.85,3.87,3.54\Bq
 ,0,4.85,3.87,3.64\Bq,0,4.85,3.97,-2.26\Bq,0,4.85,3.97,-2.16\Bq,0,4.85,
 3.97,-2.06\Bq,0,4.85,3.97,-1.96\Bq,0,4.85,3.97,-1.86\Bq,0,4.85,3.97,-1
 .76\Bq,0,4.85,3.97,-1.66\Bq,0,4.85,3.97,-1.56\Bq,0,4.85,3.97,-1.46\Bq,
 0,4.85,3.97,-1.36\Bq,0,4.85,3.97,-1.26\Bq,0,4.85,3.97,-1.16\Bq,0,4.85,
 3.97,-1.06\Bq,0,4.85,3.97,-0.96\Bq,0,4.85,3.97,-0.86\Bq,0,4.85,3.97,-0
 .76\Bq,0,4.85,3.97,-0.66\Bq,0,4.85,3.97,-0.56\Bq,0,4.85,3.97,-0.46\Bq,
 0,4.85,3.97,-0.36\Bq,0,4.85,3.97,-0.26\Bq,0,4.85,3.97,-0.16\Bq,0,4.85,
 3.97,-0.06\Bq,0,4.85,3.97,0.04\Bq,0,4.85,3.97,0.14\Bq,0,4.85,3.97,0.24
 \Bq,0,4.85,3.97,0.34\Bq,0,4.85,3.97,0.44\Bq,0,4.85,3.97,0.54\Bq,0,4.85
 ,3.97,0.64\Bq,0,4.85,3.97,0.74\Bq,0,4.85,3.97,0.84\Bq,0,4.85,3.97,0.94
 \Bq,0,4.85,3.97,1.04\Bq,0,4.85,3.97,1.14\Bq,0,4.85,3.97,1.24\Bq,0,4.85
 ,3.97,1.34\Bq,0,4.85,3.97,1.44\Bq,0,4.85,3.97,1.54\Bq,0,4.85,3.97,1.64
 \Bq,0,4.85,3.97,1.74\Bq,0,4.85,3.97,1.84\Bq,0,4.85,3.97,1.94\Bq,0,4.85
 ,3.97,2.04\Bq,0,4.85,3.97,2.14\Bq,0,4.85,3.97,2.24\Bq,0,4.85,3.97,2.34
 \Bq,0,4.85,3.97,2.44\Bq,0,4.85,3.97,2.54\Bq,0,4.85,3.97,2.64\Bq,0,4.85
 ,3.97,2.74\Bq,0,4.85,3.97,2.84\Bq,0,4.85,3.97,2.94\Bq,0,4.85,3.97,3.04
 \Bq,0,4.85,3.97,3.14\Bq,0,4.85,3.97,3.24\Bq,0,4.85,3.97,3.34\Bq,0,4.85
 ,3.97,3.44\Bq,0,4.85,3.97,3.54\Bq,0,4.85,3.97,3.64\Bq,0,4.85,4.07,-2.2
 6\Bq,0,4.85,4.07,-2.16\Bq,0,4.85,4.07,-2.06\Bq,0,4.85,4.07,-1.96\Bq,0,
 4.85,4.07,-1.86\Bq,0,4.85,4.07,-1.76\Bq,0,4.85,4.07,-1.66\Bq,0,4.85,4.
 07,-1.56\Bq,0,4.85,4.07,-1.46\Bq,0,4.85,4.07,-1.36\Bq,0,4.85,4.07,-1.2
 6\Bq,0,4.85,4.07,-1.16\Bq,0,4.85,4.07,-1.06\Bq,0,4.85,4.07,-0.96\Bq,0,
 4.85,4.07,-0.86\Bq,0,4.85,4.07,-0.76\Bq,0,4.85,4.07,-0.66\Bq,0,4.85,4.
 07,-0.56\Bq,0,4.85,4.07,-0.46\Bq,0,4.85,4.07,-0.36\Bq,0,4.85,4.07,-0.2
 6\Bq,0,4.85,4.07,-0.16\Bq,0,4.85,4.07,-0.06\Bq,0,4.85,4.07,0.04\Bq,0,4
 .85,4.07,0.14\Bq,0,4.85,4.07,0.24\Bq,0,4.85,4.07,0.34\Bq,0,4.85,4.07,0
 .44\Bq,0,4.85,4.07,0.54\Bq,0,4.85,4.07,0.64\Bq,0,4.85,4.07,0.74\Bq,0,4
 .85,4.07,0.84\Bq,0,4.85,4.07,0.94\Bq,0,4.85,4.07,1.04\Bq,0,4.85,4.07,1
 .14\Bq,0,4.85,4.07,1.24\Bq,0,4.85,4.07,1.34\Bq,0,4.85,4.07,1.44\Bq,0,4
 .85,4.07,1.54\Bq,0,4.85,4.07,1.64\Bq,0,4.85,4.07,1.74\Bq,0,4.85,4.07,1
 .84\Bq,0,4.85,4.07,1.94\Bq,0,4.85,4.07,2.04\Bq,0,4.85,4.07,2.14\Bq,0,4
 .85,4.07,2.24\Bq,0,4.85,4.07,2.34\Bq,0,4.85,4.07,2.44\Bq,0,4.85,4.07,2
 .54\Bq,0,4.85,4.07,2.64\Bq,0,4.85,4.07,2.74\Bq,0,4.85,4.07,2.84\Bq,0,4
 .85,4.07,2.94\Bq,0,4.85,4.07,3.04\Bq,0,4.85,4.07,3.14\Bq,0,4.85,4.07,3
 .24\Bq,0,4.85,4.07,3.34\Bq,0,4.85,4.07,3.44\Bq,0,4.85,4.07,3.54\Bq,0,4
 .85,4.07,3.64\\Version=ES64L-G16RevA.03\HF=-385.7160681\RMSD=1.511e-09
 \Dipole=-0.1190373,-0.0001345,0.0265449\Quadrupole=0.418359,2.5872633,
 -3.0056222,-0.0025966,-0.3425225,0.0012982\PG=C01 [X(C10H8)]\\@


 FROM WHENCE IT HAPPENS, THAT THEY WHICH TRUST TO BOOKS, DO AS THEY THAT CAST UP MANY LITTLE SUMMS INTO GREATER,
 WITHOUT CONSIDERING WETHER THOSE LITTLE SUMMES WERE RIGHTLY CAST UP OR NOT...
 AND AT LAST FINDING THE ERROUR VISIBLE, AND NOT MISTRUSTING THEIR FIRST GROUNDS,
 KNOW NOT WHICH WAY TO CLEERE THEMSELVES...
 BUT SPEND TIME IN FLUTTERING OVER THEIR BOOKES....
 AS BIRDS THAT ENTERING BY THE CHIMNEY, AND FINDING THEMSELVES INCLOSED IN A CHAMBER,
 FLUTTER AT THE FALSE LIGHT OF A GLASSE WINDOW,
 FOR WANT OF WIT TO CONSIDER WHICH WAY THEY CAME IN....
           LEVIATHAN
 Job cpu time:       0 days  0 hours 49 minutes 48.9 seconds.
 Elapsed time:       0 days  0 hours  2 minutes  3.2 seconds.
 File lengths (MBytes):  RWF=     73 Int=      0 D2E=      0 Chk=     24 Scr=      1
 Normal termination of Gaussian 16 at Thu Nov 20 14:55:33 2025.
