[Molden Format]
[Atoms] Angs
 c       1                    6  2.392281694264e+00 -5.935384813627e-01  6.324928341416e-01
 c       2                    6  2.256912500907e+00  8.258188827845e-01  8.134001863089e-01
 c       3                    6  1.035394935082e+00  1.438386233763e+00  6.502734238989e-01
 n       4                    7 -7.368487735959e-02  6.701383513412e-01  3.006113952541e-01
 b       5                    5 -6.664926982912e-02 -7.878008358458e-01  7.779034845726e-02
 c       6                    6  1.310361150935e+00 -1.396512066838e+00  2.896833510685e-01
 c       7                    6 -1.352643410333e+00 -1.467898429437e+00 -4.432097004608e-01
 c       8                    6 -2.519603013587e+00 -6.823795593107e-01 -5.492517134811e-01
 c       9                    6 -2.318869186102e+00  7.127074660063e-01 -6.083048740103e-01
 c      10                    6 -9.978070051608e-01  1.221788547567e+00 -5.665191333505e-01
 h      11                    1  3.378417802057e+00 -1.037272017603e+00  7.873080463825e-01
 h      12                    1  3.127969350439e+00  1.446524700554e+00  1.035161611070e+00
 h      13                    1  9.066262817733e-01  2.522704321514e+00  7.709293741907e-01
 h      14                    1  1.471414813890e+00 -2.465366130226e+00  1.429967990349e-01
 h      15                    1 -1.373432569320e+00 -2.537571529245e+00 -6.803172118830e-01
 h      16                    1 -3.532566645791e+00 -1.101242194671e+00 -6.509124680776e-01
 h      17                    1 -3.124611794177e+00  1.449271989457e+00 -6.216439392433e-01
 h      18                    1 -5.195107576870e-01  1.782240751553e+00 -1.380488329301e+00
[GTO]
1
 s           8
      6.665000000000e+03      6.915839628130e-04
      1.000000000000e+03      5.325796152934e-03
      2.280000000000e+02      2.706072104203e-02
      6.471000000000e+01      1.016568461408e-01
      2.106000000000e+01      2.745748236174e-01
      7.495000000000e+00      4.482943189238e-01
      2.797000000000e+00      2.849026107152e-01
      5.215000000000e-01      1.519485920608e-02
 s           8
      6.665000000000e+03     -2.932696526865e-04
      1.000000000000e+03     -2.318035473975e-03
      2.280000000000e+02     -1.149978603857e-02
      6.471000000000e+01     -4.682672700979e-02
      2.106000000000e+01     -1.284661687505e-01
      7.495000000000e+00     -3.012662724629e-01
      2.797000000000e+00     -2.556307023301e-01
      5.215000000000e-01      1.093793361012e+00
 s           1
      1.596000000000e-01      1.000000000000e+00
 s           1
      4.690000000000e-02      1.000000000000e+00
 p           3
      9.439000000000e+00      5.697925159004e-02
      2.002000000000e+00      3.132072115007e-01
      5.456000000000e-01      7.603767417375e-01
 p           1
      1.517000000000e-01      1.000000000000e+00
 p           1
      4.041000000000e-02      1.000000000000e+00
 d           1
      5.500000000000e-01      1.000000000000e+00
 d           1
      1.510000000000e-01      1.000000000000e+00

2
 s           8
      6.665000000000e+03      6.915839628130e-04
      1.000000000000e+03      5.325796152934e-03
      2.280000000000e+02      2.706072104203e-02
      6.471000000000e+01      1.016568461408e-01
      2.106000000000e+01      2.745748236174e-01
      7.495000000000e+00      4.482943189238e-01
      2.797000000000e+00      2.849026107152e-01
      5.215000000000e-01      1.519485920608e-02
 s           8
      6.665000000000e+03     -2.932696526865e-04
      1.000000000000e+03     -2.318035473975e-03
      2.280000000000e+02     -1.149978603857e-02
      6.471000000000e+01     -4.682672700979e-02
      2.106000000000e+01     -1.284661687505e-01
      7.495000000000e+00     -3.012662724629e-01
      2.797000000000e+00     -2.556307023301e-01
      5.215000000000e-01      1.093793361012e+00
 s           1
      1.596000000000e-01      1.000000000000e+00
 s           1
      4.690000000000e-02      1.000000000000e+00
 p           3
      9.439000000000e+00      5.697925159004e-02
      2.002000000000e+00      3.132072115007e-01
      5.456000000000e-01      7.603767417375e-01
 p           1
      1.517000000000e-01      1.000000000000e+00
 p           1
      4.041000000000e-02      1.000000000000e+00
 d           1
      5.500000000000e-01      1.000000000000e+00
 d           1
      1.510000000000e-01      1.000000000000e+00

3
 s           8
      6.665000000000e+03      6.915839628130e-04
      1.000000000000e+03      5.325796152934e-03
      2.280000000000e+02      2.706072104203e-02
      6.471000000000e+01      1.016568461408e-01
      2.106000000000e+01      2.745748236174e-01
      7.495000000000e+00      4.482943189238e-01
      2.797000000000e+00      2.849026107152e-01
      5.215000000000e-01      1.519485920608e-02
 s           8
      6.665000000000e+03     -2.932696526865e-04
      1.000000000000e+03     -2.318035473975e-03
      2.280000000000e+02     -1.149978603857e-02
      6.471000000000e+01     -4.682672700979e-02
      2.106000000000e+01     -1.284661687505e-01
      7.495000000000e+00     -3.012662724629e-01
      2.797000000000e+00     -2.556307023301e-01
      5.215000000000e-01      1.093793361012e+00
 s           1
      1.596000000000e-01      1.000000000000e+00
 s           1
      4.690000000000e-02      1.000000000000e+00
 p           3
      9.439000000000e+00      5.697925159004e-02
      2.002000000000e+00      3.132072115007e-01
      5.456000000000e-01      7.603767417375e-01
 p           1
      1.517000000000e-01      1.000000000000e+00
 p           1
      4.041000000000e-02      1.000000000000e+00
 d           1
      5.500000000000e-01      1.000000000000e+00
 d           1
      1.510000000000e-01      1.000000000000e+00

4
 s           8
      9.046000000000e+03      6.996174134255e-04
      1.357000000000e+03      5.386054629929e-03
      3.093000000000e+02      2.739102118906e-02
      8.773000000000e+01      1.031505919820e-01
      2.856000000000e+01      2.785706633174e-01
      1.021000000000e+01      4.482948494541e-01
      3.838000000000e+00      2.780859283953e-01
      7.466000000000e-01      1.543156123327e-02
 s           8
      9.046000000000e+03     -3.049900959534e-04
      1.357000000000e+03     -2.408026378508e-03
      3.093000000000e+02     -1.194444872518e-02
      8.773000000000e+01     -4.892599290902e-02
      2.856000000000e+01     -1.344727247250e-01
      1.021000000000e+01     -3.151125777001e-01
      3.838000000000e+00     -2.428578325496e-01
      7.466000000000e-01      1.094382206854e+00
 s           1
      2.248000000000e-01      1.000000000000e+00
 s           1
      6.124000000000e-02      1.000000000000e+00
 p           3
      1.355000000000e+01      5.890567677213e-02
      2.917000000000e+00      3.204611067143e-01
      7.973000000000e-01      7.530420617921e-01
 p           1
      2.185000000000e-01      1.000000000000e+00
 p           1
      5.611000000000e-02      1.000000000000e+00
 d           1
      8.170000000000e-01      1.000000000000e+00
 d           1
      2.300000000000e-01      1.000000000000e+00

5
 s           8
      4.570000000000e+03      6.955544180306e-04
      6.859000000000e+02      5.349572988100e-03
      1.565000000000e+02      2.711662870523e-02
      4.447000000000e+01      1.013150961206e-01
      1.448000000000e+01      2.718808293065e-01
      5.131000000000e+00      4.481159306152e-01
      1.898000000000e+00      2.899372621010e-01
      3.329000000000e-01      1.431283099861e-02
 s           8
      4.570000000000e+03     -2.812802240142e-04
      6.859000000000e+02     -2.219887811105e-03
      1.565000000000e+02     -1.101647150743e-02
      4.447000000000e+01     -4.434918985248e-02
      1.448000000000e+01     -1.209120479502e-01
      5.131000000000e+00     -2.807378995535e-01
      1.898000000000e+00     -2.660668087326e-01
      3.329000000000e-01      1.091784130514e+00
 s           1
      1.043000000000e-01      1.000000000000e+00
 s           1
      3.105000000000e-02      1.000000000000e+00
 p           3
      6.001000000000e+00      5.416586334015e-02
      1.241000000000e+00      3.023798901809e-01
      3.364000000000e-01      7.712922165481e-01
 p           1
      9.538000000000e-02      1.000000000000e+00
 p           1
      2.378000000000e-02      1.000000000000e+00
 d           1
      3.430000000000e-01      1.000000000000e+00
 d           1
      9.040000000000e-02      1.000000000000e+00

6
 s           8
      6.665000000000e+03      6.915839628130e-04
      1.000000000000e+03      5.325796152934e-03
      2.280000000000e+02      2.706072104203e-02
      6.471000000000e+01      1.016568461408e-01
      2.106000000000e+01      2.745748236174e-01
      7.495000000000e+00      4.482943189238e-01
      2.797000000000e+00      2.849026107152e-01
      5.215000000000e-01      1.519485920608e-02
 s           8
      6.665000000000e+03     -2.932696526865e-04
      1.000000000000e+03     -2.318035473975e-03
      2.280000000000e+02     -1.149978603857e-02
      6.471000000000e+01     -4.682672700979e-02
      2.106000000000e+01     -1.284661687505e-01
      7.495000000000e+00     -3.012662724629e-01
      2.797000000000e+00     -2.556307023301e-01
      5.215000000000e-01      1.093793361012e+00
 s           1
      1.596000000000e-01      1.000000000000e+00
 s           1
      4.690000000000e-02      1.000000000000e+00
 p           3
      9.439000000000e+00      5.697925159004e-02
      2.002000000000e+00      3.132072115007e-01
      5.456000000000e-01      7.603767417375e-01
 p           1
      1.517000000000e-01      1.000000000000e+00
 p           1
      4.041000000000e-02      1.000000000000e+00
 d           1
      5.500000000000e-01      1.000000000000e+00
 d           1
      1.510000000000e-01      1.000000000000e+00

7
 s           8
      6.665000000000e+03      6.915839628130e-04
      1.000000000000e+03      5.325796152934e-03
      2.280000000000e+02      2.706072104203e-02
      6.471000000000e+01      1.016568461408e-01
      2.106000000000e+01      2.745748236174e-01
      7.495000000000e+00      4.482943189238e-01
      2.797000000000e+00      2.849026107152e-01
      5.215000000000e-01      1.519485920608e-02
 s           8
      6.665000000000e+03     -2.932696526865e-04
      1.000000000000e+03     -2.318035473975e-03
      2.280000000000e+02     -1.149978603857e-02
      6.471000000000e+01     -4.682672700979e-02
      2.106000000000e+01     -1.284661687505e-01
      7.495000000000e+00     -3.012662724629e-01
      2.797000000000e+00     -2.556307023301e-01
      5.215000000000e-01      1.093793361012e+00
 s           1
      1.596000000000e-01      1.000000000000e+00
 s           1
      4.690000000000e-02      1.000000000000e+00
 p           3
      9.439000000000e+00      5.697925159004e-02
      2.002000000000e+00      3.132072115007e-01
      5.456000000000e-01      7.603767417375e-01
 p           1
      1.517000000000e-01      1.000000000000e+00
 p           1
      4.041000000000e-02      1.000000000000e+00
 d           1
      5.500000000000e-01      1.000000000000e+00
 d           1
      1.510000000000e-01      1.000000000000e+00

8
 s           8
      6.665000000000e+03      6.915839628130e-04
      1.000000000000e+03      5.325796152934e-03
      2.280000000000e+02      2.706072104203e-02
      6.471000000000e+01      1.016568461408e-01
      2.106000000000e+01      2.745748236174e-01
      7.495000000000e+00      4.482943189238e-01
      2.797000000000e+00      2.849026107152e-01
      5.215000000000e-01      1.519485920608e-02
 s           8
      6.665000000000e+03     -2.932696526865e-04
      1.000000000000e+03     -2.318035473975e-03
      2.280000000000e+02     -1.149978603857e-02
      6.471000000000e+01     -4.682672700979e-02
      2.106000000000e+01     -1.284661687505e-01
      7.495000000000e+00     -3.012662724629e-01
      2.797000000000e+00     -2.556307023301e-01
      5.215000000000e-01      1.093793361012e+00
 s           1
      1.596000000000e-01      1.000000000000e+00
 s           1
      4.690000000000e-02      1.000000000000e+00
 p           3
      9.439000000000e+00      5.697925159004e-02
      2.002000000000e+00      3.132072115007e-01
      5.456000000000e-01      7.603767417375e-01
 p           1
      1.517000000000e-01      1.000000000000e+00
 p           1
      4.041000000000e-02      1.000000000000e+00
 d           1
      5.500000000000e-01      1.000000000000e+00
 d           1
      1.510000000000e-01      1.000000000000e+00

9
 s           8
      6.665000000000e+03      6.915839628130e-04
      1.000000000000e+03      5.325796152934e-03
      2.280000000000e+02      2.706072104203e-02
      6.471000000000e+01      1.016568461408e-01
      2.106000000000e+01      2.745748236174e-01
      7.495000000000e+00      4.482943189238e-01
      2.797000000000e+00      2.849026107152e-01
      5.215000000000e-01      1.519485920608e-02
 s           8
      6.665000000000e+03     -2.932696526865e-04
      1.000000000000e+03     -2.318035473975e-03
      2.280000000000e+02     -1.149978603857e-02
      6.471000000000e+01     -4.682672700979e-02
      2.106000000000e+01     -1.284661687505e-01
      7.495000000000e+00     -3.012662724629e-01
      2.797000000000e+00     -2.556307023301e-01
      5.215000000000e-01      1.093793361012e+00
 s           1
      1.596000000000e-01      1.000000000000e+00
 s           1
      4.690000000000e-02      1.000000000000e+00
 p           3
      9.439000000000e+00      5.697925159004e-02
      2.002000000000e+00      3.132072115007e-01
      5.456000000000e-01      7.603767417375e-01
 p           1
      1.517000000000e-01      1.000000000000e+00
 p           1
      4.041000000000e-02      1.000000000000e+00
 d           1
      5.500000000000e-01      1.000000000000e+00
 d           1
      1.510000000000e-01      1.000000000000e+00

10
 s           8
      6.665000000000e+03      6.915839628130e-04
      1.000000000000e+03      5.325796152934e-03
      2.280000000000e+02      2.706072104203e-02
      6.471000000000e+01      1.016568461408e-01
      2.106000000000e+01      2.745748236174e-01
      7.495000000000e+00      4.482943189238e-01
      2.797000000000e+00      2.849026107152e-01
      5.215000000000e-01      1.519485920608e-02
 s           8
      6.665000000000e+03     -2.932696526865e-04
      1.000000000000e+03     -2.318035473975e-03
      2.280000000000e+02     -1.149978603857e-02
      6.471000000000e+01     -4.682672700979e-02
      2.106000000000e+01     -1.284661687505e-01
      7.495000000000e+00     -3.012662724629e-01
      2.797000000000e+00     -2.556307023301e-01
      5.215000000000e-01      1.093793361012e+00
 s           1
      1.596000000000e-01      1.000000000000e+00
 s           1
      4.690000000000e-02      1.000000000000e+00
 p           3
      9.439000000000e+00      5.697925159004e-02
      2.002000000000e+00      3.132072115007e-01
      5.456000000000e-01      7.603767417375e-01
 p           1
      1.517000000000e-01      1.000000000000e+00
 p           1
      4.041000000000e-02      1.000000000000e+00
 d           1
      5.500000000000e-01      1.000000000000e+00
 d           1
      1.510000000000e-01      1.000000000000e+00

11
 s           3
      1.301000000000e+01      3.349872639000e-02
      1.962000000000e+00      2.348008011741e-01
      4.446000000000e-01      8.136829578829e-01
 s           1
      1.220000000000e-01      1.000000000000e+00
 s           1
      2.974000000000e-02      1.000000000000e+00
 p           1
      7.270000000000e-01      1.000000000000e+00
 p           1
      1.410000000000e-01      1.000000000000e+00

12
 s           3
      1.301000000000e+01      3.349872639000e-02
      1.962000000000e+00      2.348008011741e-01
      4.446000000000e-01      8.136829578829e-01
 s           1
      1.220000000000e-01      1.000000000000e+00
 s           1
      2.974000000000e-02      1.000000000000e+00
 p           1
      7.270000000000e-01      1.000000000000e+00
 p           1
      1.410000000000e-01      1.000000000000e+00

13
 s           3
      1.301000000000e+01      3.349872639000e-02
      1.962000000000e+00      2.348008011741e-01
      4.446000000000e-01      8.136829578829e-01
 s           1
      1.220000000000e-01      1.000000000000e+00
 s           1
      2.974000000000e-02      1.000000000000e+00
 p           1
      7.270000000000e-01      1.000000000000e+00
 p           1
      1.410000000000e-01      1.000000000000e+00

14
 s           3
      1.301000000000e+01      3.349872639000e-02
      1.962000000000e+00      2.348008011741e-01
      4.446000000000e-01      8.136829578829e-01
 s           1
      1.220000000000e-01      1.000000000000e+00
 s           1
      2.974000000000e-02      1.000000000000e+00
 p           1
      7.270000000000e-01      1.000000000000e+00
 p           1
      1.410000000000e-01      1.000000000000e+00

15
 s           3
      1.301000000000e+01      3.349872639000e-02
      1.962000000000e+00      2.348008011741e-01
      4.446000000000e-01      8.136829578829e-01
 s           1
      1.220000000000e-01      1.000000000000e+00
 s           1
      2.974000000000e-02      1.000000000000e+00
 p           1
      7.270000000000e-01      1.000000000000e+00
 p           1
      1.410000000000e-01      1.000000000000e+00

16
 s           3
      1.301000000000e+01      3.349872639000e-02
      1.962000000000e+00      2.348008011741e-01
      4.446000000000e-01      8.136829578829e-01
 s           1
      1.220000000000e-01      1.000000000000e+00
 s           1
      2.974000000000e-02      1.000000000000e+00
 p           1
      7.270000000000e-01      1.000000000000e+00
 p           1
      1.410000000000e-01      1.000000000000e+00

17
 s           3
      1.301000000000e+01      3.349872639000e-02
      1.962000000000e+00      2.348008011741e-01
      4.446000000000e-01      8.136829578829e-01
 s           1
      1.220000000000e-01      1.000000000000e+00
 s           1
      2.974000000000e-02      1.000000000000e+00
 p           1
      7.270000000000e-01      1.000000000000e+00
 p           1
      1.410000000000e-01      1.000000000000e+00

18
 s           3
      1.301000000000e+01      3.349872639000e-02
      1.962000000000e+00      2.348008011741e-01
      4.446000000000e-01      8.136829578829e-01
 s           1
      1.220000000000e-01      1.000000000000e+00
 s           1
      2.974000000000e-02      1.000000000000e+00
 p           1
      7.270000000000e-01      1.000000000000e+00
 p           1
      1.410000000000e-01      1.000000000000e+00


[5D]
[7F]
[9G]
[MO]
 Ene=  -15.620190
 Spin=  Alpha
 Occup=    2.000000
   1     0.0000903619739030
   2     0.0001615824628839
   3    -0.0061690675382455
   4    -0.0071539555639339
   5    -0.0000167339930164
   6    -0.0000060526660712
   7    -0.0000033991514427
   8     0.0008484388988203
   9    -0.0072159975653633
  10    -0.0008281180106638
  11     0.0036711534887886
  12     0.0034866427589990
  13     0.0013169697103093
  14    -0.0000019148806280
  15    -0.0000014369969217
  16    -0.0000160688632112
  17     0.0000331042265153
  18    -0.0000190405321868
  19     0.0002008120603693
  20     0.0004135374273642
  21     0.0003202728053302
  22     0.0007026618205953
  23     0.0016966362708192
  24     0.0000029616058400
  25     0.0000276974238714
  26    -0.0080295204326269
  27     0.0136961563480117
  28    -0.0001037538594738
  29     0.0000359766653801
  30     0.0000060224878171
  31     0.0056759021636601
  32    -0.0099518083437981
  33     0.0000748801511639
  34    -0.0056368730600672
  35     0.0025904088996377
  36    -0.0007826128805622
  37     0.0000053447174513
  38     0.0000189010422785
  39    -0.0000110169242576
  40     0.0000839306252283
  41     0.0000090753094296
  42    -0.0005585744664889
  43    -0.0001900488159210
  44     0.0012689422765277
  45    -0.0031193147609210
  46     0.0022015208053781
  47    -0.0002139278229666
  48    -0.0003373319003111
  49     0.0020291833904553
  50    -0.0270240788555028
  51     0.0002914199077097
  52     0.0001758487396150
  53     0.0001416896390310
  54     0.0148944065986568
  55     0.0029380830238914
  56     0.0032548370904443
  57    -0.0030760748756235
  58     0.0048720173363985
  59     0.0003203150032917
  60     0.0000711635559843
  61     0.0000353525056740
  62     0.0000149107692121
  63     0.0001151551379509
  64     0.0001713018717007
  65     0.0006384727000147
  66    -0.0011916014580273
  67    -0.0016275801318190
  68     0.0014506458818033
  69    -0.0062903415330754
  70    -1.0031186517660744
  71    -0.0055111696466687
  72     0.0278411883577314
  73     0.0202280218600259
  74    -0.0002536184380402
  75    -0.0007635524455856
  76     0.0006335832855332
  77     0.0013633172208901
  78     0.0048209053245345
  79    -0.0017014922817202
  80     0.0019441342825197
  81     0.0025534069279858
  82    -0.0004579572114119
  83     0.0000592824329232
  84    -0.0001808826384437
  85     0.0000193817461963
  86    -0.0000003743214270
  87    -0.0000485737548689
  88    -0.0001456169923323
  89     0.0015883785826522
  90     0.0000274314519453
  91     0.0011642691008730
  92     0.0004053621881324
  93    -0.0000540734663464
  94    -0.0001345520862796
  95    -0.0004053866171925
  96     0.0045986235636951
  97     0.0000377598711584
  98    -0.0002190401012537
  99     0.0000249712211545
 100    -0.0015654669466411
 101     0.0016530961038446
 102    -0.0002948252698504
 103     0.0004037822175085
 104     0.0009432848908311
 105     0.0000357375921036
 106     0.0000877864045825
 107    -0.0000619069284702
 108     0.0000572545325176
 109    -0.0001672605736926
 110     0.0000222749055537
 111    -0.0001554319545726
 112     0.0000731292569618
 113     0.0006862753060519
 114    -0.0018286452510542
 115     0.0012703920551764
 116     0.0000199536890606
 117     0.0000601995130739
 118    -0.0016991500776378
 119     0.0099568837424066
 120    -0.0000407589256869
 121     0.0000604884050710
 122    -0.0000056987025461
 123    -0.0024991509629917
 124    -0.0003053654030317
 125    -0.0004820473550156
 126     0.0029760572910691
 127     0.0014942231342490
 128     0.0009361803476684
 129    -0.0000491494824704
 130     0.0000001757056917
 131    -0.0000011785719292
 132    -0.0000139283488252
 133    -0.0000625750420632
 134     0.0001970413132865
 135    -0.0002152765672606
 136    -0.0000358129924104
 137    -0.0007609788187120
 138    -0.0001906650254833
 139    -0.0000376129599307
 140    -0.0000542046440136
 141    -0.0004548183828711
 142     0.0009830739871043
 143     0.0000178742478711
 144     0.0000109173809360
 145     0.0000074935880964
 146     0.0009247453860109
 147     0.0007540207650029
 148     0.0001579012650758
 149    -0.0002778050336486
 150    -0.0001407740704918
 151     0.0001955654863194
 152    -0.0000264075688246
 153     0.0000171825279253
 154     0.0000294617059126
 155    -0.0000346356751576
 156     0.0000449235374241
 157    -0.0001227908190324
 158    -0.0000669450338295
 159     0.0001214726794040
 160    -0.0010104977418617
 161     0.0000709100349202
 162     0.0000267728023721
 163     0.0000526064244289
 164    -0.0006226115476391
 165     0.0015487774084592
 166     0.0000007190158599
 167     0.0000234155844564
 168     0.0000104284067862
 169    -0.0014425253644051
 170    -0.0024701672420167
 171    -0.0009798456285016
 172    -0.0000475765228420
 173     0.0012835685928981
 174    -0.0002361706911797
 175    -0.0000085451870996
 176     0.0000097766379702
 177     0.0000196389314249
 178     0.0000122670998594
 179     0.0000124046396489
 180     0.0001363976665457
 181    -0.0001249939067447
 182    -0.0006031879570958
 183    -0.0002581776853251
 184    -0.0012180695557967
 185    -0.0000025063325354
 186     0.0000191089889461
 187    -0.0024629857974875
 188     0.0060643163160074
 189     0.0000792487702798
 190     0.0000148258812341
 191     0.0000297685209175
 192    -0.0003473949519829
 193    -0.0034580188669461
 194     0.0005589247454108
 195     0.0020723406789362
 196     0.0012049004909601
 197     0.0006741688202325
 198    -0.0000508834814407
 199     0.0000772865626909
 200     0.0000787177452932
 201     0.0000872833993000
 202     0.0000114163385218
 203     0.0000518719566737
 204     0.0001310221977636
 205    -0.0012924794335301
 206    -0.0000451607891481
 207    -0.0013273954377235
 208    -0.0001177947206582
 209    -0.0001554154900070
 210    -0.0066369718115796
 211    -0.0151530224635772
 212    -0.0002732829368159
 213     0.0001774118048306
 214    -0.0001856540211165
 215    -0.0074007891438002
 216     0.0041678278991726
 217    -0.0048788250667268
 218     0.0017473847356982
 219     0.0023147364385658
 220    -0.0023786552443450
 221     0.0000379781748296
 222     0.0001824438212909
 223     0.0000668588038214
 224    -0.0000973057718022
 225    -0.0001663201822519
 226    -0.0009085464630092
 227    -0.0024819528500965
 228     0.0019580459892105
 229     0.0016441762365260
 230     0.0019331074791939
 231    -0.0000120583749080
 232    -0.0007130785770239
 233    -0.0006545899498419
 234     0.0000049772018777
 235     0.0000040101810039
 236     0.0000035151336360
 237     0.0001276945811603
 238    -0.0003714155446003
 239    -0.0000581396540036
 240    -0.0000093845925755
 241     0.0012963631418351
 242     0.0008955705059445
 243    -0.0000377486868482
 244    -0.0000184774108408
 245    -0.0000214240205024
 246    -0.0005294226133692
 247    -0.0007053300061472
 248    -0.0002963865633125
 249     0.0002626348132576
 250    -0.0002018673199514
 251    -0.0021158324292601
 252    -0.0000451391017642
 253    -0.0001570659957856
 254    -0.0000465159149884
 255     0.0015376579360466
 256     0.0004530803914794
 257     0.0004108378274429
 258    -0.0000302754882500
 259    -0.0005174584070098
 260     0.0008099957751564
 261     0.0000083463840975
 262    -0.0000148925782546
 263    -0.0000022293571515
 264     0.0002310248427337
 265     0.0000682381657787
 266    -0.0000378020174665
 267    -0.0000369607293084
 268    -0.0015882806228291
 269     0.0004989959915951
 270     0.0000205454442517
 271     0.0000029477357678
 272     0.0000067963694035
 273    -0.0003071445004392
 274    -0.0002076177435736
 275    -0.0002634827227911
 276    -0.0000002525798879
 277    -0.0006180126171961
 278     0.0004892903122798
 279    -0.0000251960035066
 280    -0.0000032111263777
 281     0.0000061401929132
 282    -0.0002303128143263
 283    -0.0003145063860569
 284    -0.0000797535188625
 285     0.0000158538311768
 286     0.0000595558931751
 287     0.0001303731691769
 288    -0.0000049031625569
 289     0.0000111348680003
 290     0.0000263012083561
 291     0.0002676748558305
 292     0.0000731303851124
 293     0.0002687253103841
 294     0.0002752097786161
 295    -0.0002889922191286
 296    -0.0015779404807587
 297    -0.0000132316550360
 298    -0.0000928080327329
 299     0.0001821068431842
 300    -0.0009537344436012
 301     0.0003379901759139
 302    -0.0000132370594845
 Ene=  -11.302942
 Spin=  Alpha
 Occup=    2.000000
   1    -0.0000069507510907
   2    -0.0000093032404173
   3     0.0016246704533652
   4     0.0017187031046054
   5    -0.0000250856058072
   6    -0.0000108964244250
   7    -0.0000167267965959
   8     0.0005409710340896
   9     0.0020594399145287
  10     0.0004644503200178
  11     0.0018735999739059
  12     0.0024306107355418
  13     0.0007371681771388
  14     0.0000116065262996
  15     0.0000065050656687
  16     0.0000271598655597
  17    -0.0000364368733728
  18     0.0000236813682492
  19    -0.0002192145644968
  20    -0.0002984492907448
  21    -0.0001997882304905
  22    -0.0001352529317759
  23    -0.0003554630965246
  24    -0.0000544393679038
  25    -0.0000875431624861
  26     0.0037483004388741
  27     0.0094444910306202
  28    -0.0000021453032908
  29    -0.0000179904711776
  30     0.0000090107478020
  31    -0.0032737038147469
  32     0.0031108848359051
  33    -0.0017547090710387
  34    -0.0038950303766442
  35     0.0040638704042812
  36    -0.0000410387354422
  37     0.0000082902149369
  38     0.0000581296794352
  39    -0.0000220455611744
  40     0.0000363480591132
  41     0.0000266668531979
  42    -0.0000038185810177
  43     0.0009601259408639
  44    -0.0007037912103392
  45     0.0010418992177269
  46    -0.0006170942808937
  47    -0.0005989150379383
  48    -0.0001323849712803
  49    -0.0050542807486318
  50    -0.0123788643101959
  51     0.0001031256933046
  52     0.0000250812219016
  53    -0.0000341992152221
  54    -0.0050830905596543
  55     0.0014302751552655
  56    -0.0002786509341075
  57    -0.0064806624633337
  58     0.0016628530904800
  59    -0.0012944067941931
  60    -0.0000204977307280
  61     0.0001013721900251
  62    -0.0000179602892737
  63     0.0000724502351587
  64     0.0000619276548460
  65     0.0007016362104995
  66     0.0015728639038990
  67    -0.0007512195055870
  68    -0.0001132317071969
  69     0.0014068778819429
  70     0.0001617380964525
  71     0.0006620080789445
  72    -0.0036766531071677
  73     0.0055341252921276
  74    -0.0000780618342911
  75     0.0001222917018535
  76    -0.0005267402517707
  77     0.0012669490267282
  78    -0.0018132043791510
  79     0.0012310112674656
  80     0.0001543059925246
  81    -0.0008481997363142
  82    -0.0001808708917321
  83     0.0000572614723667
  84    -0.0001217577541929
  85     0.0000793271368635
  86    -0.0000097484752151
  87    -0.0000025214084525
  88    -0.0006457367774533
  89    -0.0008146077203904
  90     0.0006095945532880
  91    -0.0001219020129844
  92     0.0006338383866854
  93    -0.0003111928548403
  94    -0.0004676893397239
  95     0.0008564604501578
  96     0.0034395505691783
  97     0.0000390030232649