[Molden Format]
[Atoms] Angs
 c       1                    6  2.349764376205e+00 -5.548024309681e-01  6.017533053488e-01
 c       2                    6  2.224096948122e+00  8.722315669082e-01  8.068838193158e-01
 c       3                    6  1.018249543256e+00  1.506390328344e+00  7.328362241915e-01
 n       4                    7 -2.082930965460e-01  8.276348148310e-01  5.554156284807e-01
 b       5                    5 -1.428391531023e-01 -6.781578419214e-01  9.456330046853e-02
 c       6                    6  1.274718100062e+00 -1.310821441772e+00  2.285341880751e-01
 c       7                    6 -1.361463935145e+00 -1.390123856314e+00 -4.777290323149e-01
 c       8                    6 -2.591251874966e+00 -6.402611811640e-01 -6.385481050170e-01
 c       9                    6 -2.323061062278e+00  7.020260594438e-01 -6.049591356186e-01
 c      10                    6 -8.448737619255e-01  8.647431031565e-01 -6.762211186907e-01
 h      11                    1  3.335223011166e+00 -1.010253486434e+00  7.444285992440e-01
 h      12                    1  3.105696859353e+00  1.478641647098e+00  1.024244224002e+00
 h      13                    1  9.209177138053e-01  2.585777576771e+00  8.848702284609e-01
 h      14                    1  1.418552533832e+00 -2.389829948146e+00  9.219125646832e-02
 h      15                    1 -1.286796314881e+00 -2.428128850569e+00 -8.247228123179e-01
 h      16                    1 -3.582547048369e+00 -1.098599589779e+00 -6.353593223450e-01
 h      17                    1 -2.992180567559e+00  1.516965821829e+00 -3.128575481842e-01
 h      18                    1 -3.139122710308e-01  1.146567708686e+00 -1.595323699570e+00
[GTO]
1
 s           8
      6.665000000000e+03      6.915839628130e-04
      1.000000000000e+03      5.325796152934e-03
      2.280000000000e+02      2.706072104203e-02
      6.471000000000e+01      1.016568461408e-01
      2.106000000000e+01      2.745748236174e-01
      7.495000000000e+00      4.482943189238e-01
      2.797000000000e+00      2.849026107152e-01
      5.215000000000e-01      1.519485920608e-02
 s           8
      6.665000000000e+03     -2.932696526865e-04
      1.000000000000e+03     -2.318035473975e-03
      2.280000000000e+02     -1.149978603857e-02
      6.471000000000e+01     -4.682672700979e-02
      2.106000000000e+01     -1.284661687505e-01
      7.495000000000e+00     -3.012662724629e-01
      2.797000000000e+00     -2.556307023301e-01
      5.215000000000e-01      1.093793361012e+00
 s           1
      1.596000000000e-01      1.000000000000e+00
 s           1
      4.690000000000e-02      1.000000000000e+00
 p           3
      9.439000000000e+00      5.697925159004e-02
      2.002000000000e+00      3.132072115007e-01
      5.456000000000e-01      7.603767417375e-01
 p           1
      1.517000000000e-01      1.000000000000e+00
 p           1
      4.041000000000e-02      1.000000000000e+00
 d           1
      5.500000000000e-01      1.000000000000e+00
 d           1
      1.510000000000e-01      1.000000000000e+00

2
 s           8
      6.665000000000e+03      6.915839628130e-04
      1.000000000000e+03      5.325796152934e-03
      2.280000000000e+02      2.706072104203e-02
      6.471000000000e+01      1.016568461408e-01
      2.106000000000e+01      2.745748236174e-01
      7.495000000000e+00      4.482943189238e-01
      2.797000000000e+00      2.849026107152e-01
      5.215000000000e-01      1.519485920608e-02
 s           8
      6.665000000000e+03     -2.932696526865e-04
      1.000000000000e+03     -2.318035473975e-03
      2.280000000000e+02     -1.149978603857e-02
      6.471000000000e+01     -4.682672700979e-02
      2.106000000000e+01     -1.284661687505e-01
      7.495000000000e+00     -3.012662724629e-01
      2.797000000000e+00     -2.556307023301e-01
      5.215000000000e-01      1.093793361012e+00
 s           1
      1.596000000000e-01      1.000000000000e+00
 s           1
      4.690000000000e-02      1.000000000000e+00
 p           3
      9.439000000000e+00      5.697925159004e-02
      2.002000000000e+00      3.132072115007e-01
      5.456000000000e-01      7.603767417375e-01
 p           1
      1.517000000000e-01      1.000000000000e+00
 p           1
      4.041000000000e-02      1.000000000000e+00
 d           1
      5.500000000000e-01      1.000000000000e+00
 d           1
      1.510000000000e-01      1.000000000000e+00

3
 s           8
      6.665000000000e+03      6.915839628130e-04
      1.000000000000e+03      5.325796152934e-03
      2.280000000000e+02      2.706072104203e-02
      6.471000000000e+01      1.016568461408e-01
      2.106000000000e+01      2.745748236174e-01
      7.495000000000e+00      4.482943189238e-01
      2.797000000000e+00      2.849026107152e-01
      5.215000000000e-01      1.519485920608e-02
 s           8
      6.665000000000e+03     -2.932696526865e-04
      1.000000000000e+03     -2.318035473975e-03
      2.280000000000e+02     -1.149978603857e-02
      6.471000000000e+01     -4.682672700979e-02
      2.106000000000e+01     -1.284661687505e-01
      7.495000000000e+00     -3.012662724629e-01
      2.797000000000e+00     -2.556307023301e-01
      5.215000000000e-01      1.093793361012e+00
 s           1
      1.596000000000e-01      1.000000000000e+00
 s           1
      4.690000000000e-02      1.000000000000e+00
 p           3
      9.439000000000e+00      5.697925159004e-02
      2.002000000000e+00      3.132072115007e-01
      5.456000000000e-01      7.603767417375e-01
 p           1
      1.517000000000e-01      1.000000000000e+00
 p           1
      4.041000000000e-02      1.000000000000e+00
 d           1
      5.500000000000e-01      1.000000000000e+00
 d           1
      1.510000000000e-01      1.000000000000e+00

4
 s           8
      9.046000000000e+03      6.996174134255e-04
      1.357000000000e+03      5.386054629929e-03
      3.093000000000e+02      2.739102118906e-02
      8.773000000000e+01      1.031505919820e-01
      2.856000000000e+01      2.785706633174e-01
      1.021000000000e+01      4.482948494541e-01
      3.838000000000e+00      2.780859283953e-01
      7.466000000000e-01      1.543156123327e-02
 s           8
      9.046000000000e+03     -3.049900959534e-04
      1.357000000000e+03     -2.408026378508e-03
      3.093000000000e+02     -1.194444872518e-02
      8.773000000000e+01     -4.892599290902e-02
      2.856000000000e+01     -1.344727247250e-01
      1.021000000000e+01     -3.151125777001e-01
      3.838000000000e+00     -2.428578325496e-01
      7.466000000000e-01      1.094382206854e+00
 s           1
      2.248000000000e-01      1.000000000000e+00
 s           1
      6.124000000000e-02      1.000000000000e+00
 p           3
      1.355000000000e+01      5.890567677213e-02
      2.917000000000e+00      3.204611067143e-01
      7.973000000000e-01      7.530420617921e-01
 p           1
      2.185000000000e-01      1.000000000000e+00
 p           1
      5.611000000000e-02      1.000000000000e+00
 d           1
      8.170000000000e-01      1.000000000000e+00
 d           1
      2.300000000000e-01      1.000000000000e+00

5
 s           8
      4.570000000000e+03      6.955544180306e-04
      6.859000000000e+02      5.349572988100e-03
      1.565000000000e+02      2.711662870523e-02
      4.447000000000e+01      1.013150961206e-01
      1.448000000000e+01      2.718808293065e-01
      5.131000000000e+00      4.481159306152e-01
      1.898000000000e+00      2.899372621010e-01
      3.329000000000e-01      1.431283099861e-02
 s           8
      4.570000000000e+03     -2.812802240142e-04
      6.859000000000e+02     -2.219887811105e-03
      1.565000000000e+02     -1.101647150743e-02
      4.447000000000e+01     -4.434918985248e-02
      1.448000000000e+01     -1.209120479502e-01
      5.131000000000e+00     -2.807378995535e-01
      1.898000000000e+00     -2.660668087326e-01
      3.329000000000e-01      1.091784130514e+00
 s           1
      1.043000000000e-01      1.000000000000e+00
 s           1
      3.105000000000e-02      1.000000000000e+00
 p           3
      6.001000000000e+00      5.416586334015e-02
      1.241000000000e+00      3.023798901809e-01
      3.364000000000e-01      7.712922165481e-01
 p           1
      9.538000000000e-02      1.000000000000e+00
 p           1
      2.378000000000e-02      1.000000000000e+00
 d           1
      3.430000000000e-01      1.000000000000e+00
 d           1
      9.040000000000e-02      1.000000000000e+00

6
 s           8
      6.665000000000e+03      6.915839628130e-04
      1.000000000000e+03      5.325796152934e-03
      2.280000000000e+02      2.706072104203e-02
      6.471000000000e+01      1.016568461408e-01
      2.106000000000e+01      2.745748236174e-01
      7.495000000000e+00      4.482943189238e-01
      2.797000000000e+00      2.849026107152e-01
      5.215000000000e-01      1.519485920608e-02
 s           8
      6.665000000000e+03     -2.932696526865e-04
      1.000000000000e+03     -2.318035473975e-03
      2.280000000000e+02     -1.149978603857e-02
      6.471000000000e+01     -4.682672700979e-02
      2.106000000000e+01     -1.284661687505e-01
      7.495000000000e+00     -3.012662724629e-01
      2.797000000000e+00     -2.556307023301e-01
      5.215000000000e-01      1.093793361012e+00
 s           1
      1.596000000000e-01      1.000000000000e+00
 s           1
      4.690000000000e-02      1.000000000000e+00
 p           3
      9.439000000000e+00      5.697925159004e-02
      2.002000000000e+00      3.132072115007e-01
      5.456000000000e-01      7.603767417375e-01
 p           1
      1.517000000000e-01      1.000000000000e+00
 p           1
      4.041000000000e-02      1.000000000000e+00
 d           1
      5.500000000000e-01      1.000000000000e+00
 d           1
      1.510000000000e-01      1.000000000000e+00

7
 s           8
      6.665000000000e+03      6.915839628130e-04
      1.000000000000e+03      5.325796152934e-03
      2.280000000000e+02      2.706072104203e-02
      6.471000000000e+01      1.016568461408e-01
      2.106000000000e+01      2.745748236174e-01
      7.495000000000e+00      4.482943189238e-01
      2.797000000000e+00      2.849026107152e-01
      5.215000000000e-01      1.519485920608e-02
 s           8
      6.665000000000e+03     -2.932696526865e-04
      1.000000000000e+03     -2.318035473975e-03
      2.280000000000e+02     -1.149978603857e-02
      6.471000000000e+01     -4.682672700979e-02
      2.106000000000e+01     -1.284661687505e-01
      7.495000000000e+00     -3.012662724629e-01
      2.797000000000e+00     -2.556307023301e-01
      5.215000000000e-01      1.093793361012e+00
 s           1
      1.596000000000e-01      1.000000000000e+00
 s           1
      4.690000000000e-02      1.000000000000e+00
 p           3
      9.439000000000e+00      5.697925159004e-02
      2.002000000000e+00      3.132072115007e-01
      5.456000000000e-01      7.603767417375e-01
 p           1
      1.517000000000e-01      1.000000000000e+00
 p           1
      4.041000000000e-02      1.000000000000e+00
 d           1
      5.500000000000e-01      1.000000000000e+00
 d           1
      1.510000000000e-01      1.000000000000e+00

8
 s           8
      6.665000000000e+03      6.915839628130e-04
      1.000000000000e+03      5.325796152934e-03
      2.280000000000e+02      2.706072104203e-02
      6.471000000000e+01      1.016568461408e-01
      2.106000000000e+01      2.745748236174e-01
      7.495000000000e+00      4.482943189238e-01
      2.797000000000e+00      2.849026107152e-01
      5.215000000000e-01      1.519485920608e-02
 s           8
      6.665000000000e+03     -2.932696526865e-04
      1.000000000000e+03     -2.318035473975e-03
      2.280000000000e+02     -1.149978603857e-02
      6.471000000000e+01     -4.682672700979e-02
      2.106000000000e+01     -1.284661687505e-01
      7.495000000000e+00     -3.012662724629e-01
      2.797000000000e+00     -2.556307023301e-01
      5.215000000000e-01      1.093793361012e+00
 s           1
      1.596000000000e-01      1.000000000000e+00
 s           1
      4.690000000000e-02      1.000000000000e+00
 p           3
      9.439000000000e+00      5.697925159004e-02
      2.002000000000e+00      3.132072115007e-01
      5.456000000000e-01      7.603767417375e-01
 p           1
      1.517000000000e-01      1.000000000000e+00
 p           1
      4.041000000000e-02      1.000000000000e+00
 d           1
      5.500000000000e-01      1.000000000000e+00
 d           1
      1.510000000000e-01      1.000000000000e+00

9
 s           8
      6.665000000000e+03      6.915839628130e-04
      1.000000000000e+03      5.325796152934e-03
      2.280000000000e+02      2.706072104203e-02
      6.471000000000e+01      1.016568461408e-01
      2.106000000000e+01      2.745748236174e-01
      7.495000000000e+00      4.482943189238e-01
      2.797000000000e+00      2.849026107152e-01
      5.215000000000e-01      1.519485920608e-02
 s           8
      6.665000000000e+03     -2.932696526865e-04
      1.000000000000e+03     -2.318035473975e-03
      2.280000000000e+02     -1.149978603857e-02
      6.471000000000e+01     -4.682672700979e-02
      2.106000000000e+01     -1.284661687505e-01
      7.495000000000e+00     -3.012662724629e-01
      2.797000000000e+00     -2.556307023301e-01
      5.215000000000e-01      1.093793361012e+00
 s           1
      1.596000000000e-01      1.000000000000e+00
 s           1
      4.690000000000e-02      1.000000000000e+00
 p           3
      9.439000000000e+00      5.697925159004e-02
      2.002000000000e+00      3.132072115007e-01
      5.456000000000e-01      7.603767417375e-01
 p           1
      1.517000000000e-01      1.000000000000e+00
 p           1
      4.041000000000e-02      1.000000000000e+00
 d           1
      5.500000000000e-01      1.000000000000e+00
 d           1
      1.510000000000e-01      1.000000000000e+00

10
 s           8
      6.665000000000e+03      6.915839628130e-04
      1.000000000000e+03      5.325796152934e-03
      2.280000000000e+02      2.706072104203e-02
      6.471000000000e+01      1.016568461408e-01
      2.106000000000e+01      2.745748236174e-01
      7.495000000000e+00      4.482943189238e-01
      2.797000000000e+00      2.849026107152e-01
      5.215000000000e-01      1.519485920608e-02
 s           8
      6.665000000000e+03     -2.932696526865e-04
      1.000000000000e+03     -2.318035473975e-03
      2.280000000000e+02     -1.149978603857e-02
      6.471000000000e+01     -4.682672700979e-02
      2.106000000000e+01     -1.284661687505e-01
      7.495000000000e+00     -3.012662724629e-01
      2.797000000000e+00     -2.556307023301e-01
      5.215000000000e-01      1.093793361012e+00
 s           1
      1.596000000000e-01      1.000000000000e+00
 s           1
      4.690000000000e-02      1.000000000000e+00
 p           3
      9.439000000000e+00      5.697925159004e-02
      2.002000000000e+00      3.132072115007e-01
      5.456000000000e-01      7.603767417375e-01
 p           1
      1.517000000000e-01      1.000000000000e+00
 p           1
      4.041000000000e-02      1.000000000000e+00
 d           1
      5.500000000000e-01      1.000000000000e+00
 d           1
      1.510000000000e-01      1.000000000000e+00

11
 s           3
      1.301000000000e+01      3.349872639000e-02
      1.962000000000e+00      2.348008011741e-01
      4.446000000000e-01      8.136829578829e-01
 s           1
      1.220000000000e-01      1.000000000000e+00
 s           1
      2.974000000000e-02      1.000000000000e+00
 p           1
      7.270000000000e-01      1.000000000000e+00
 p           1
      1.410000000000e-01      1.000000000000e+00

12
 s           3
      1.301000000000e+01      3.349872639000e-02
      1.962000000000e+00      2.348008011741e-01
      4.446000000000e-01      8.136829578829e-01
 s           1
      1.220000000000e-01      1.000000000000e+00
 s           1
      2.974000000000e-02      1.000000000000e+00
 p           1
      7.270000000000e-01      1.000000000000e+00
 p           1
      1.410000000000e-01      1.000000000000e+00

13
 s           3
      1.301000000000e+01      3.349872639000e-02
      1.962000000000e+00      2.348008011741e-01
      4.446000000000e-01      8.136829578829e-01
 s           1
      1.220000000000e-01      1.000000000000e+00
 s           1
      2.974000000000e-02      1.000000000000e+00
 p           1
      7.270000000000e-01      1.000000000000e+00
 p           1
      1.410000000000e-01      1.000000000000e+00

14
 s           3
      1.301000000000e+01      3.349872639000e-02
      1.962000000000e+00      2.348008011741e-01
      4.446000000000e-01      8.136829578829e-01
 s           1
      1.220000000000e-01      1.000000000000e+00
 s           1
      2.974000000000e-02      1.000000000000e+00
 p           1
      7.270000000000e-01      1.000000000000e+00
 p           1
      1.410000000000e-01      1.000000000000e+00

15
 s           3
      1.301000000000e+01      3.349872639000e-02
      1.962000000000e+00      2.348008011741e-01
      4.446000000000e-01      8.136829578829e-01
 s           1
      1.220000000000e-01      1.000000000000e+00
 s           1
      2.974000000000e-02      1.000000000000e+00
 p           1
      7.270000000000e-01      1.000000000000e+00
 p           1
      1.410000000000e-01      1.000000000000e+00

16
 s           3
      1.301000000000e+01      3.349872639000e-02
      1.962000000000e+00      2.348008011741e-01
      4.446000000000e-01      8.136829578829e-01
 s           1
      1.220000000000e-01      1.000000000000e+00
 s           1
      2.974000000000e-02      1.000000000000e+00
 p           1
      7.270000000000e-01      1.000000000000e+00
 p           1
      1.410000000000e-01      1.000000000000e+00

17
 s           3
      1.301000000000e+01      3.349872639000e-02
      1.962000000000e+00      2.348008011741e-01
      4.446000000000e-01      8.136829578829e-01
 s           1
      1.220000000000e-01      1.000000000000e+00
 s           1
      2.974000000000e-02      1.000000000000e+00
 p           1
      7.270000000000e-01      1.000000000000e+00
 p           1
      1.410000000000e-01      1.000000000000e+00

18
 s           3
      1.301000000000e+01      3.349872639000e-02
      1.962000000000e+00      2.348008011741e-01
      4.446000000000e-01      8.136829578829e-01
 s           1
      1.220000000000e-01      1.000000000000e+00
 s           1
      2.974000000000e-02      1.000000000000e+00
 p           1
      7.270000000000e-01      1.000000000000e+00
 p           1
      1.410000000000e-01      1.000000000000e+00


[5D]
[7F]
[9G]
[MO]
 Ene=  -15.601889
 Spin=  Alpha
 Occup=    2.000000
   1    -0.0000924006244609
   2    -0.0001630581514999
   3     0.0068575887050719
   4     0.0022289173019276
   5    -0.0000029637279874
   6     0.0000006287628488
   7     0.0000187733748414
   8    -0.0011729710973862
   9     0.0085281950380348
  10     0.0011871441021129
  11    -0.0027107740927562
  12    -0.0027792068857181
  13    -0.0010532230794215
  14    -0.0000071261041642
  15     0.0000052489308363
  16    -0.0000033470164940
  17    -0.0000077717976686
  18    -0.0000336108263763
  19    -0.0001469024271230
  20    -0.0004942177528586
  21    -0.0003004008371936
  22    -0.0012528436077966
  23    -0.0021895300007225
  24     0.0000443040064181
  25     0.0000494509278346
  26     0.0089599196500183
  27    -0.0093607295452401
  28     0.0000691492703724
  29    -0.0000420716725599
  30    -0.0000071814946180
  31    -0.0062976959219378
  32     0.0122399876326801
  33     0.0011137609765784
  34     0.0040136578940293
  35    -0.0030527868685113
  36     0.0002275041459796
  37     0.0000166601428679
  38    -0.0000348461435800
  39    -0.0000096151955114
  40    -0.0001250137106801
  41    -0.0000523266411133
  42     0.0005027980185903
  43    -0.0002381783033930
  44    -0.0011660396477489
  45     0.0031817664845450
  46    -0.0031935547966615
  47     0.0001848925675370
  48     0.0003009213383244
  49    -0.0051602190878797
  50     0.0220783572053277
  51    -0.0002902494659345
  52    -0.0001289512520870
  53    -0.0000696258150234
  54    -0.0164029951155486
  55    -0.0020957764469615
  56    -0.0022751332926404
  57     0.0026187409792506
  58    -0.0034633994632380
  59    -0.0005182473505803
  60    -0.0000414559860360
  61    -0.0000007229324442
  62     0.0000405104028181
  63    -0.0001527534109289
  64    -0.0001369658647432
  65    -0.0006066712969749
  66     0.0006742747761387
  67     0.0013878614959459
  68    -0.0017270345217382
  69     0.0066760859885186
  70     1.0031527286724926
  71     0.0054179221254675
  72    -0.0288654691865115
  73    -0.0197597368860616
  74     0.0008659313397599
  75     0.0000728729989843
  76    -0.0015310399323691
  77    -0.0033557650532220
  78    -0.0008684476266442
  79     0.0055705087593017
  80    -0.0038549640681577
  81    -0.0006750972746540
  82     0.0023806058045516
  83     0.0000937628531771
  84     0.0000922243276476
  85     0.0000087054609291
  86     0.0001032542943054
  87     0.0000936604856495
  88    -0.0006093367525823
  89    -0.0011571613714544
  90    -0.0004534018321688
  91    -0.0010027344164862
  92    -0.0005817855759495
  93     0.0001759003914837
  94     0.0003869020289590
  95     0.0037928136545105
  96    -0.0023922514180481
  97    -0.0000176776720161
  98     0.0004614821831725
  99     0.0001413928567344
 100    -0.0001703749365779
 101    -0.0022486381496953
 102    -0.0008994235484400
 103    -0.0010048083200196
 104    -0.0010014425297054
 105    -0.0005582933928329
 106    -0.0002554590596097
 107     0.0000099220964342
 108     0.0001208554680847
 109    -0.0001071967040936
 110     0.0002439653211700
 111     0.0004993733598783
 112     0.0001506594403798
 113    -0.0004830680874891
 114     0.0019161785605226
 115     0.0001076210526360
 116     0.0000432056189739
 117     0.0000505466590249
 118     0.0030526622746011
 119    -0.0061946680079705
 120     0.0000089262807940
 121    -0.0000192726980530
 122     0.0000052138763055
 123     0.0027819947378348
 124     0.0003655998448570
 125     0.0008512777788639
 126    -0.0017102965924095
 127    -0.0002321090794297
 128    -0.0003907933689021
 129     0.0000595253045127
 130     0.0000146614509854
 131    -0.0000091109415492
 132     0.0000959367601633
 133     0.0000791667292698
 134     0.0000274098883638
 135     0.0000883277987717
 136     0.0000198196008741
 137     0.0007287967470319
 138     0.0001451499846185
 139     0.0001112015025254
 140     0.0001600332998739
 141    -0.0008190736799115
 142    -0.0074204061818057
 143    -0.0000294161230898
 144     0.0000011610887691
 145    -0.0000316173753056
 146    -0.0025653472828553
 147    -0.0001884734764724
 148    -0.0008576753840281
 149     0.0014866875600708
 150    -0.0019042043153993
 151    -0.0001549666034299
 152     0.0000575473418977
 153    -0.0000751159625031
 154    -0.0000445536034854
 155     0.0000358186525971
 156    -0.0000581639325634
 157    -0.0001581677608216
 158     0.0000304902199812
 159    -0.0005141814850366
 160     0.0006518661988094
 161    -0.0008628514753051
 162     0.0000609928837937
 163     0.0000982641437168
 164    -0.0037745317509009
 165     0.0047835406176502
 166     0.0000191196417761
 167    -0.0000311627061051
 168    -0.0000096451221361
 169    -0.0010475256362289
 170     0.0004588726763610
 171     0.0001644014384256
 172     0.0014431925194085
 173    -0.0013189622579508
 174     0.0001740173856241
 175     0.0000265943427816
 176    -0.0000303482493600
 177    -0.0000083558292437
 178     0.0000128589328884
 179     0.0000020070305969
 180     0.0001221220148430
 181     0.0001172835750316
 182     0.0001862806304621
 183     0.0001534530674709
 184     0.0006697893972631
 185    -0.0000060658172982
 186    -0.0000373573829166
 187     0.0031557201349433
 188    -0.0085323397925056
 189    -0.0000628973511662
 190     0.0000061666791756
 191    -0.0000500870534324
 192     0.0006804014816369
 193    -0.0004930348465200
 194    -0.0001483081142689
 195    -0.0029175176871176
 196    -0.0004996100250528
 197    -0.0004260248440238
 198     0.0000905667948510
 199    -0.0000682200036412
 200    -0.0000045542509537
 201    -0.0001398373861776
 202     0.0000150051707524
 203    -0.0004484711934226
 204     0.0001964143292222
 205     0.0002964779210002
 206    -0.0004091616885989
 207     0.0006375872620867
 208     0.0001063993831658
 209     0.0001608797798512
 210     0.0093139998631048
 211     0.0152990551636456
 212     0.0002401093008831
 213     0.0000240489987402
 214     0.0003354278896210
 215     0.0050110856696407
 216    -0.0017859751630967
 217     0.0083415474254709
 218    -0.0028334793289847
 219    -0.0005463388156095
 220     0.0025677419844790
 221    -0.0001222398309181
 222    -0.0001856155375119
 223    -0.0000205446177240
 224     0.0002401825421212
 225     0.0000457805962858
 226     0.0032324741459473
 227     0.0032808015659894
 228    -0.0011493457378253
 229    -0.0014073429733109
 230    -0.0004033804615358
 231     0.0000083811827971
 232     0.0013395433567212
 233     0.0004975052147156
 234     0.0000178878221638
 235    -0.0000008365787057
 236    -0.0000078374590234
 237    -0.0001450434322996
 238     0.0005676125574245
 239     0.0000025715767453
 240     0.0000720996542521
 241    -0.0010907645394080
 242    -0.0002682816187473
 243     0.0000422188219771
 244     0.0000011080813463
 245     0.0000137796739039
 246     0.0005914626478088
 247     0.0007191491852447
 248     0.0002540896433570
 249    -0.0002479178469709
 250     0.0000183824912246
 251     0.0015249403092713
 252     0.0000275547997775
 253     0.0001184412901199
 254     0.0000151992494874
 255    -0.0016706348592244
 256    -0.0004301277837205
 257    -0.0004004680269842
 258     0.0000927742126363
 259     0.0011395688742446
 260    -0.0003359082215030
 261    -0.0000111582544386
 262     0.0000407400663598
 263     0.0000055468550487
 264    -0.0003939463024758
 265     0.0000549887201442
 266    -0.0000047703600514
 267     0.0000789678027080
 268     0.0014809842000300
 269    -0.0017501476042204
 270    -0.0000254606909915
 271     0.0000169511727299
 272     0.0000000784821364
 273    -0.0000656810996805
 274     0.0002284202950168
 275     0.0001110698808520
 276     0.0000211156340409
 277    -0.0007760389366921
 278    -0.0000777658987632
 279     0.0000222204685411
 280     0.0000025951057269
 281    -0.0000101085733528
 282    -0.0001442419865710
 283     0.0000106255461162
 284     0.0001005429813049
 285    -0.0000206627558950
 286     0.0016503117579729
 287    -0.0005359594194301
 288     0.0000184204906179
 289    -0.0000144491045774
 290    -0.0000124294908162
 291     0.0002583798847614
 292    -0.0005039983690180
 293    -0.0001121808524606
 294    -0.0001940459916962
 295     0.0022354768432322
 296     0.0013097366851004
 297     0.0000121320259278
 298     0.0000215353937300
 299    -0.0002538970962964
 300     0.0012330179234637
 301    -0.0003533542500887
 302     0.0009057084635642
 Ene=  -11.311106
 Spin=  Alpha
 Occup=    2.000000
   1    -0.0000631281726918
   2    -0.0001061701709481
   3     0.0065077338985434
   4    -0.0076286772858915
   5    -0.0000206123789607
   6     0.0000025856976279
   7    -0.0000231598600832
   8    -0.0017301900506702
   9     0.0057028067108235
  10     0.0002090064806489
  11     0.0018029207517360
  12    -0.0002452262950428
  13     0.0002096677083939
  14    -0.0000468459640939
  15     0.0000188294872304
  16     0.0000065759650213
  17    -0.0000000875181115
  18    -0.0000203696815002
  19     0.0000517517122152
  20     0.0000417120971218
  21    -0.0000231481266179
  22    -0.0003107876130020
  23    -0.0009991629719200
  24     0.0000605548209045
  25     0.0000969484012350
  26     0.0113092403137881
  27     0.0093984977488277
  28    -0.0001634908737128
  29     0.0000421253082756
  30    -0.0000278230565717
  31    -0.0084054091320135
  32     0.0082288351344151
  33     0.0003088584178609
  34    -0.0024382598558470
  35    -0.0009034111297379
  36    -0.0002456630127986
  37    -0.0000171067996871
  38     0.0000094868804653
  39    -0.0000177486768400
  40     0.0000738064818218
  41    -0.0000066624543681
  42    -0.0000021220496336
  43    -0.0000990075289825
  44    -0.0009100043613350
  45     0.0036111247594972
  46    -0.0020266808834791
  47    -0.0002407288057083
  48    -0.0000008278231819
  49    -0.0132219644543577
  50    -0.0066477371385122
  51     0.0002342924759587
  52     0.0000313539245566
  53     0.0001418882867487
  54    -0.0111542241912265
  55     0.0039869492957084
  56    -0.0013247548776940
  57    -0.0013177951265858
  58     0.0027963677705756
  59    -0.0001838235750908
  60     0.0000726027316717
  61     0.0000571783502191
  62    -0.0000499167663012
  63     0.0001279168027057
  64     0.0001152491549193
  65     0.0008034548124881
  66     0.0004852674422013
  67     0.0009543211535766
  68    -0.0003786502909296
  69     0.0054761771503621
  70     0.0002009464141944
  71     0.0008048021275803
  72    -0.0047042563832032
  73    -0.0013164581989286
  74    -0.0003455310540318
  75     0.0002176993398637
  76    -0.0001080388790154
  77    -0.0019582907975700
  78    -0.0008027065156805
  79     0.0013293771192764
  80    -0.0022709265699076
  81    -0.0003161980032513
  82     0.0019319214868442
  83    -0.0000151865700558
  84    -0.0001335098729096
  85    -0.0000320280960348
  86    -0.0001067109412493
  87    -0.0000802811148321
  88    -0.0016165503859764
  89    -0.0002703539669234
  90     0.0001304829177869
  91     0.0003908541028779
  92     0.0005282992840406
  93     0.0001860974152460
  94     0.0003723862119239
  95     0.0024300734665731
  96    -0.0005027075889405
  97    -0.0000668150530772