[Molden Format]
[Atoms] Angs
 c       1                    6  2.375943094889e+00 -6.093337888258e-01  9.100663955311e-01
 c       2                    6  2.209440139373e+00  8.156959938486e-01  9.262866541244e-01
 c       3                    6  1.032630159163e+00  1.406408502335e+00  4.594946321555e-01
 n       4                    7  5.394156159244e-02  5.666331238903e-01  4.181538619564e-02
 b       5                    5  8.144567821254e-02 -8.799641891002e-01  5.132866269067e-02
 c       6                    6  1.365672756993e+00 -1.514905932758e+00  5.382317563322e-01
 c       7                    6 -1.246428126116e+00 -9.397918127124e-01 -8.843390887304e-01
 c       8                    6 -2.636474858066e+00 -6.141309643654e-01 -3.250892256544e-01
 c       9                    6 -2.484318253550e+00  7.457997862067e-01 -3.596028306528e-01
 c      10                    6 -1.076087359512e+00  6.483372816801e-01 -9.276098862956e-01
 h      11                    1  3.370585846657e+00 -9.890710874694e-01  1.173667043196e+00
 h      12                    1  3.029373181161e+00  1.457012335847e+00  1.252939335794e+00
 h      13                    1  8.835769220605e-01  2.487798077553e+00  3.954941657125e-01
 h      14                    1  1.621401990227e+00 -2.578790487793e+00  5.322106503062e-01
 h      15                    1 -1.195199954463e+00 -1.496716460554e+00 -1.829866667510e+00
 h      16                    1 -3.467399457270e+00 -1.251119724270e+00 -1.471628208822e-02
 h      17                    1 -3.117323430958e+00  1.589465387804e+00 -7.826415200395e-02
 h      18                    1 -8.007798903929e-01  1.156673958684e+00 -1.862046549102e+00
[GTO]
1
 s           8
      6.665000000000e+03      6.915839628130e-04
      1.000000000000e+03      5.325796152934e-03
      2.280000000000e+02      2.706072104203e-02
      6.471000000000e+01      1.016568461408e-01
      2.106000000000e+01      2.745748236174e-01
      7.495000000000e+00      4.482943189238e-01
      2.797000000000e+00      2.849026107152e-01
      5.215000000000e-01      1.519485920608e-02
 s           8
      6.665000000000e+03     -2.932696526865e-04
      1.000000000000e+03     -2.318035473975e-03
      2.280000000000e+02     -1.149978603857e-02
      6.471000000000e+01     -4.682672700979e-02
      2.106000000000e+01     -1.284661687505e-01
      7.495000000000e+00     -3.012662724629e-01
      2.797000000000e+00     -2.556307023301e-01
      5.215000000000e-01      1.093793361012e+00
 s           1
      1.596000000000e-01      1.000000000000e+00
 s           1
      4.690000000000e-02      1.000000000000e+00
 p           3
      9.439000000000e+00      5.697925159004e-02
      2.002000000000e+00      3.132072115007e-01
      5.456000000000e-01      7.603767417375e-01
 p           1
      1.517000000000e-01      1.000000000000e+00
 p           1
      4.041000000000e-02      1.000000000000e+00
 d           1
      5.500000000000e-01      1.000000000000e+00
 d           1
      1.510000000000e-01      1.000000000000e+00

2
 s           8
      6.665000000000e+03      6.915839628130e-04
      1.000000000000e+03      5.325796152934e-03
      2.280000000000e+02      2.706072104203e-02
      6.471000000000e+01      1.016568461408e-01
      2.106000000000e+01      2.745748236174e-01
      7.495000000000e+00      4.482943189238e-01
      2.797000000000e+00      2.849026107152e-01
      5.215000000000e-01      1.519485920608e-02
 s           8
      6.665000000000e+03     -2.932696526865e-04
      1.000000000000e+03     -2.318035473975e-03
      2.280000000000e+02     -1.149978603857e-02
      6.471000000000e+01     -4.682672700979e-02
      2.106000000000e+01     -1.284661687505e-01
      7.495000000000e+00     -3.012662724629e-01
      2.797000000000e+00     -2.556307023301e-01
      5.215000000000e-01      1.093793361012e+00
 s           1
      1.596000000000e-01      1.000000000000e+00
 s           1
      4.690000000000e-02      1.000000000000e+00
 p           3
      9.439000000000e+00      5.697925159004e-02
      2.002000000000e+00      3.132072115007e-01
      5.456000000000e-01      7.603767417375e-01
 p           1
      1.517000000000e-01      1.000000000000e+00
 p           1
      4.041000000000e-02      1.000000000000e+00
 d           1
      5.500000000000e-01      1.000000000000e+00
 d           1
      1.510000000000e-01      1.000000000000e+00

3
 s           8
      6.665000000000e+03      6.915839628130e-04
      1.000000000000e+03      5.325796152934e-03
      2.280000000000e+02      2.706072104203e-02
      6.471000000000e+01      1.016568461408e-01
      2.106000000000e+01      2.745748236174e-01
      7.495000000000e+00      4.482943189238e-01
      2.797000000000e+00      2.849026107152e-01
      5.215000000000e-01      1.519485920608e-02
 s           8
      6.665000000000e+03     -2.932696526865e-04
      1.000000000000e+03     -2.318035473975e-03
      2.280000000000e+02     -1.149978603857e-02
      6.471000000000e+01     -4.682672700979e-02
      2.106000000000e+01     -1.284661687505e-01
      7.495000000000e+00     -3.012662724629e-01
      2.797000000000e+00     -2.556307023301e-01
      5.215000000000e-01      1.093793361012e+00
 s           1
      1.596000000000e-01      1.000000000000e+00
 s           1
      4.690000000000e-02      1.000000000000e+00
 p           3
      9.439000000000e+00      5.697925159004e-02
      2.002000000000e+00      3.132072115007e-01
      5.456000000000e-01      7.603767417375e-01
 p           1
      1.517000000000e-01      1.000000000000e+00
 p           1
      4.041000000000e-02      1.000000000000e+00
 d           1
      5.500000000000e-01      1.000000000000e+00
 d           1
      1.510000000000e-01      1.000000000000e+00

4
 s           8
      9.046000000000e+03      6.996174134255e-04
      1.357000000000e+03      5.386054629929e-03
      3.093000000000e+02      2.739102118906e-02
      8.773000000000e+01      1.031505919820e-01
      2.856000000000e+01      2.785706633174e-01
      1.021000000000e+01      4.482948494541e-01
      3.838000000000e+00      2.780859283953e-01
      7.466000000000e-01      1.543156123327e-02
 s           8
      9.046000000000e+03     -3.049900959534e-04
      1.357000000000e+03     -2.408026378508e-03
      3.093000000000e+02     -1.194444872518e-02
      8.773000000000e+01     -4.892599290902e-02
      2.856000000000e+01     -1.344727247250e-01
      1.021000000000e+01     -3.151125777001e-01
      3.838000000000e+00     -2.428578325496e-01
      7.466000000000e-01      1.094382206854e+00
 s           1
      2.248000000000e-01      1.000000000000e+00
 s           1
      6.124000000000e-02      1.000000000000e+00
 p           3
      1.355000000000e+01      5.890567677213e-02
      2.917000000000e+00      3.204611067143e-01
      7.973000000000e-01      7.530420617921e-01
 p           1
      2.185000000000e-01      1.000000000000e+00
 p           1
      5.611000000000e-02      1.000000000000e+00
 d           1
      8.170000000000e-01      1.000000000000e+00
 d           1
      2.300000000000e-01      1.000000000000e+00

5
 s           8
      4.570000000000e+03      6.955544180306e-04
      6.859000000000e+02      5.349572988100e-03
      1.565000000000e+02      2.711662870523e-02
      4.447000000000e+01      1.013150961206e-01
      1.448000000000e+01      2.718808293065e-01
      5.131000000000e+00      4.481159306152e-01
      1.898000000000e+00      2.899372621010e-01
      3.329000000000e-01      1.431283099861e-02
 s           8
      4.570000000000e+03     -2.812802240142e-04
      6.859000000000e+02     -2.219887811105e-03
      1.565000000000e+02     -1.101647150743e-02
      4.447000000000e+01     -4.434918985248e-02
      1.448000000000e+01     -1.209120479502e-01
      5.131000000000e+00     -2.807378995535e-01
      1.898000000000e+00     -2.660668087326e-01
      3.329000000000e-01      1.091784130514e+00
 s           1
      1.043000000000e-01      1.000000000000e+00
 s           1
      3.105000000000e-02      1.000000000000e+00
 p           3
      6.001000000000e+00      5.416586334015e-02
      1.241000000000e+00      3.023798901809e-01
      3.364000000000e-01      7.712922165481e-01
 p           1
      9.538000000000e-02      1.000000000000e+00
 p           1
      2.378000000000e-02      1.000000000000e+00
 d           1
      3.430000000000e-01      1.000000000000e+00
 d           1
      9.040000000000e-02      1.000000000000e+00

6
 s           8
      6.665000000000e+03      6.915839628130e-04
      1.000000000000e+03      5.325796152934e-03
      2.280000000000e+02      2.706072104203e-02
      6.471000000000e+01      1.016568461408e-01
      2.106000000000e+01      2.745748236174e-01
      7.495000000000e+00      4.482943189238e-01
      2.797000000000e+00      2.849026107152e-01
      5.215000000000e-01      1.519485920608e-02
 s           8
      6.665000000000e+03     -2.932696526865e-04
      1.000000000000e+03     -2.318035473975e-03
      2.280000000000e+02     -1.149978603857e-02
      6.471000000000e+01     -4.682672700979e-02
      2.106000000000e+01     -1.284661687505e-01
      7.495000000000e+00     -3.012662724629e-01
      2.797000000000e+00     -2.556307023301e-01
      5.215000000000e-01      1.093793361012e+00
 s           1
      1.596000000000e-01      1.000000000000e+00
 s           1
      4.690000000000e-02      1.000000000000e+00
 p           3
      9.439000000000e+00      5.697925159004e-02
      2.002000000000e+00      3.132072115007e-01
      5.456000000000e-01      7.603767417375e-01
 p           1
      1.517000000000e-01      1.000000000000e+00
 p           1
      4.041000000000e-02      1.000000000000e+00
 d           1
      5.500000000000e-01      1.000000000000e+00
 d           1
      1.510000000000e-01      1.000000000000e+00

7
 s           8
      6.665000000000e+03      6.915839628130e-04
      1.000000000000e+03      5.325796152934e-03
      2.280000000000e+02      2.706072104203e-02
      6.471000000000e+01      1.016568461408e-01
      2.106000000000e+01      2.745748236174e-01
      7.495000000000e+00      4.482943189238e-01
      2.797000000000e+00      2.849026107152e-01
      5.215000000000e-01      1.519485920608e-02
 s           8
      6.665000000000e+03     -2.932696526865e-04
      1.000000000000e+03     -2.318035473975e-03
      2.280000000000e+02     -1.149978603857e-02
      6.471000000000e+01     -4.682672700979e-02
      2.106000000000e+01     -1.284661687505e-01
      7.495000000000e+00     -3.012662724629e-01
      2.797000000000e+00     -2.556307023301e-01
      5.215000000000e-01      1.093793361012e+00
 s           1
      1.596000000000e-01      1.000000000000e+00
 s           1
      4.690000000000e-02      1.000000000000e+00
 p           3
      9.439000000000e+00      5.697925159004e-02
      2.002000000000e+00      3.132072115007e-01
      5.456000000000e-01      7.603767417375e-01
 p           1
      1.517000000000e-01      1.000000000000e+00
 p           1
      4.041000000000e-02      1.000000000000e+00
 d           1
      5.500000000000e-01      1.000000000000e+00
 d           1
      1.510000000000e-01      1.000000000000e+00

8
 s           8
      6.665000000000e+03      6.915839628130e-04
      1.000000000000e+03      5.325796152934e-03
      2.280000000000e+02      2.706072104203e-02
      6.471000000000e+01      1.016568461408e-01
      2.106000000000e+01      2.745748236174e-01
      7.495000000000e+00      4.482943189238e-01
      2.797000000000e+00      2.849026107152e-01
      5.215000000000e-01      1.519485920608e-02
 s           8
      6.665000000000e+03     -2.932696526865e-04
      1.000000000000e+03     -2.318035473975e-03
      2.280000000000e+02     -1.149978603857e-02
      6.471000000000e+01     -4.682672700979e-02
      2.106000000000e+01     -1.284661687505e-01
      7.495000000000e+00     -3.012662724629e-01
      2.797000000000e+00     -2.556307023301e-01
      5.215000000000e-01      1.093793361012e+00
 s           1
      1.596000000000e-01      1.000000000000e+00
 s           1
      4.690000000000e-02      1.000000000000e+00
 p           3
      9.439000000000e+00      5.697925159004e-02
      2.002000000000e+00      3.132072115007e-01
      5.456000000000e-01      7.603767417375e-01
 p           1
      1.517000000000e-01      1.000000000000e+00
 p           1
      4.041000000000e-02      1.000000000000e+00
 d           1
      5.500000000000e-01      1.000000000000e+00
 d           1
      1.510000000000e-01      1.000000000000e+00

9
 s           8
      6.665000000000e+03      6.915839628130e-04
      1.000000000000e+03      5.325796152934e-03
      2.280000000000e+02      2.706072104203e-02
      6.471000000000e+01      1.016568461408e-01
      2.106000000000e+01      2.745748236174e-01
      7.495000000000e+00      4.482943189238e-01
      2.797000000000e+00      2.849026107152e-01
      5.215000000000e-01      1.519485920608e-02
 s           8
      6.665000000000e+03     -2.932696526865e-04
      1.000000000000e+03     -2.318035473975e-03
      2.280000000000e+02     -1.149978603857e-02
      6.471000000000e+01     -4.682672700979e-02
      2.106000000000e+01     -1.284661687505e-01
      7.495000000000e+00     -3.012662724629e-01
      2.797000000000e+00     -2.556307023301e-01
      5.215000000000e-01      1.093793361012e+00
 s           1
      1.596000000000e-01      1.000000000000e+00
 s           1
      4.690000000000e-02      1.000000000000e+00
 p           3
      9.439000000000e+00      5.697925159004e-02
      2.002000000000e+00      3.132072115007e-01
      5.456000000000e-01      7.603767417375e-01
 p           1
      1.517000000000e-01      1.000000000000e+00
 p           1
      4.041000000000e-02      1.000000000000e+00
 d           1
      5.500000000000e-01      1.000000000000e+00
 d           1
      1.510000000000e-01      1.000000000000e+00

10
 s           8
      6.665000000000e+03      6.915839628130e-04
      1.000000000000e+03      5.325796152934e-03
      2.280000000000e+02      2.706072104203e-02
      6.471000000000e+01      1.016568461408e-01
      2.106000000000e+01      2.745748236174e-01
      7.495000000000e+00      4.482943189238e-01
      2.797000000000e+00      2.849026107152e-01
      5.215000000000e-01      1.519485920608e-02
 s           8
      6.665000000000e+03     -2.932696526865e-04
      1.000000000000e+03     -2.318035473975e-03
      2.280000000000e+02     -1.149978603857e-02
      6.471000000000e+01     -4.682672700979e-02
      2.106000000000e+01     -1.284661687505e-01
      7.495000000000e+00     -3.012662724629e-01
      2.797000000000e+00     -2.556307023301e-01
      5.215000000000e-01      1.093793361012e+00
 s           1
      1.596000000000e-01      1.000000000000e+00
 s           1
      4.690000000000e-02      1.000000000000e+00
 p           3
      9.439000000000e+00      5.697925159004e-02
      2.002000000000e+00      3.132072115007e-01
      5.456000000000e-01      7.603767417375e-01
 p           1
      1.517000000000e-01      1.000000000000e+00
 p           1
      4.041000000000e-02      1.000000000000e+00
 d           1
      5.500000000000e-01      1.000000000000e+00
 d           1
      1.510000000000e-01      1.000000000000e+00

11
 s           3
      1.301000000000e+01      3.349872639000e-02
      1.962000000000e+00      2.348008011741e-01
      4.446000000000e-01      8.136829578829e-01
 s           1
      1.220000000000e-01      1.000000000000e+00
 s           1
      2.974000000000e-02      1.000000000000e+00
 p           1
      7.270000000000e-01      1.000000000000e+00
 p           1
      1.410000000000e-01      1.000000000000e+00

12
 s           3
      1.301000000000e+01      3.349872639000e-02
      1.962000000000e+00      2.348008011741e-01
      4.446000000000e-01      8.136829578829e-01
 s           1
      1.220000000000e-01      1.000000000000e+00
 s           1
      2.974000000000e-02      1.000000000000e+00
 p           1
      7.270000000000e-01      1.000000000000e+00
 p           1
      1.410000000000e-01      1.000000000000e+00

13
 s           3
      1.301000000000e+01      3.349872639000e-02
      1.962000000000e+00      2.348008011741e-01
      4.446000000000e-01      8.136829578829e-01
 s           1
      1.220000000000e-01      1.000000000000e+00
 s           1
      2.974000000000e-02      1.000000000000e+00
 p           1
      7.270000000000e-01      1.000000000000e+00
 p           1
      1.410000000000e-01      1.000000000000e+00

14
 s           3
      1.301000000000e+01      3.349872639000e-02
      1.962000000000e+00      2.348008011741e-01
      4.446000000000e-01      8.136829578829e-01
 s           1
      1.220000000000e-01      1.000000000000e+00
 s           1
      2.974000000000e-02      1.000000000000e+00
 p           1
      7.270000000000e-01      1.000000000000e+00
 p           1
      1.410000000000e-01      1.000000000000e+00

15
 s           3
      1.301000000000e+01      3.349872639000e-02
      1.962000000000e+00      2.348008011741e-01
      4.446000000000e-01      8.136829578829e-01
 s           1
      1.220000000000e-01      1.000000000000e+00
 s           1
      2.974000000000e-02      1.000000000000e+00
 p           1
      7.270000000000e-01      1.000000000000e+00
 p           1
      1.410000000000e-01      1.000000000000e+00

16
 s           3
      1.301000000000e+01      3.349872639000e-02
      1.962000000000e+00      2.348008011741e-01
      4.446000000000e-01      8.136829578829e-01
 s           1
      1.220000000000e-01      1.000000000000e+00
 s           1
      2.974000000000e-02      1.000000000000e+00
 p           1
      7.270000000000e-01      1.000000000000e+00
 p           1
      1.410000000000e-01      1.000000000000e+00

17
 s           3
      1.301000000000e+01      3.349872639000e-02
      1.962000000000e+00      2.348008011741e-01
      4.446000000000e-01      8.136829578829e-01
 s           1
      1.220000000000e-01      1.000000000000e+00
 s           1
      2.974000000000e-02      1.000000000000e+00
 p           1
      7.270000000000e-01      1.000000000000e+00
 p           1
      1.410000000000e-01      1.000000000000e+00

18
 s           3
      1.301000000000e+01      3.349872639000e-02
      1.962000000000e+00      2.348008011741e-01
      4.446000000000e-01      8.136829578829e-01
 s           1
      1.220000000000e-01      1.000000000000e+00
 s           1
      2.974000000000e-02      1.000000000000e+00
 p           1
      7.270000000000e-01      1.000000000000e+00
 p           1
      1.410000000000e-01      1.000000000000e+00


[5D]
[7F]
[9G]
[MO]
 Ene=  -15.596031
 Spin=  Alpha
 Occup=    2.000000
   1    -0.0000475712970810
   2    -0.0000915710489796
   3     0.0025482271521581
   4     0.0081950232415143
   5     0.0000167322326616
   6    -0.0000114091558545
   7     0.0000002176839853
   8    -0.0003020435930512
   9     0.0049657283471671
  10     0.0000482029256180
  11    -0.0035362216080920
  12    -0.0041268909467923
  13    -0.0013291800775346
  14     0.0000123196762990
  15    -0.0000188007336850
  16     0.0000131702838988
  17    -0.0000233770722028
  18     0.0000340689253121
  19    -0.0001323438799112
  20    -0.0000440702273084
  21    -0.0004761063255898
  22    -0.0001987419614273
  23    -0.0015276121727324
  24    -0.0000188423744419
  25    -0.0000533652211582
  26     0.0039053019934934
  27    -0.0098495923763910
  28     0.0001255154476139
  29    -0.0000308760624726
  30     0.0000230476621929
  31    -0.0015637314488129
  32     0.0062401170129314
  33    -0.0006549456280801
  34     0.0047077544231735
  35    -0.0019489722934003
  36     0.0016159586179017
  37    -0.0000240169361551
  38    -0.0000210658821108
  39     0.0000150838435183
  40    -0.0000876034165768
  41     0.0000321507692014
  42     0.0005846736330206
  43     0.0001820829110002
  44    -0.0006723417593109
  45     0.0014784333492234
  46    -0.0013100137637584
  47     0.0003398769351425
  48     0.0005138205575743
  49     0.0043781720089990
  50     0.0237925665392850
  51    -0.0002710650425110
  52    -0.0002281098783977
  53    -0.0001651932567299
  54    -0.0092325560372710
  55    -0.0055490598271556
  56    -0.0035938827400532
  57     0.0017385065299459
  58    -0.0042623389143923
  59     0.0007142682048568
  60    -0.0000448399658386
  61    -0.0000836548342422
  62    -0.0001463798779544
  63    -0.0001390473944299
  64    -0.0002983115050611
  65    -0.0010014106163582
  66     0.0002390035791627
  67     0.0016369054488531
  68    -0.0015617306179983
  69     0.0042160550614196
  70     1.0031672573828294
  71     0.0055964237050080
  72    -0.0263356055115243
  73    -0.0118707933043389
  74     0.0002080486186159
  75     0.0006403578513912
  76    -0.0003315488101706
  77     0.0006605740551699
  78    -0.0028044079016719
  79     0.0014365228655060
  80    -0.0026275771325817
  81    -0.0032244888546086
  82    -0.0009893531472842
  83    -0.0001597749158196
  84     0.0001601494519207
  85     0.0001387272827045
  86    -0.0000153604195682
  87     0.0002315175927476
  88     0.0004162547466255
  89    -0.0021548610158074
  90    -0.0010458559613118
  91    -0.0015276008268534
  92    -0.0017172699601414
  93     0.0001790817881313
  94     0.0003438898304015
  95    -0.0011270783746531
  96    -0.0040295648654198
  97    -0.0000812745682464
  98     0.0002674760887958
  99    -0.0001160530422482
 100     0.0012797313011935
 101    -0.0028536984986356
 102     0.0001037316430098
 103    -0.0003516902708928
 104    -0.0001844926645999
 105     0.0000227395800686
 106    -0.0000289801897223
 107     0.0000494675007789
 108    -0.0001118767649000
 109     0.0000433648193021
 110    -0.0001508381267289
 111     0.0002882304396040
 112     0.0010261474108831
 113    -0.0008739792747410
 114     0.0017990975792383
 115    -0.0016424469160827
 116     0.0000178727954855
 117     0.0000089834916064
 118     0.0008700929757792
 119    -0.0117182686868901
 120     0.0000232049893813
 121    -0.0000421211254423
 122    -0.0000002486484636
 123     0.0024818229183883
 124     0.0007526400066337
 125     0.0007804986238298
 126    -0.0026788992904880
 127    -0.0019671087955676
 128    -0.0011318009700992
 129     0.0000528842316890
 130    -0.0000318064608859
 131     0.0000114695869320
 132     0.0000006183669325
 133     0.0000511939056812
 134    -0.0001418895577323
 135     0.0003714325260771
 136     0.0002043912739267
 137     0.0006442494940212
 138     0.0004088381256902
 139    -0.0000143692435999
 140    -0.0000102664632840
 141    -0.0034904056113983
 142     0.0068330946088715
 143    -0.0000419574076462
 144    -0.0000973097631914
 145     0.0000312163356184
 146    -0.0011513483899620
 147    -0.0022652128528275
 148    -0.0016876697559472
 149     0.0001374361254580
 150     0.0012371472938474
 151     0.0007916202589888
 152    -0.0000237388425704
 153     0.0000678545741958
 154     0.0000090848537284
 155     0.0000517218398246
 156     0.0000243305622489
 157     0.0002733341324215
 158     0.0000584364921173
 159    -0.0005825788745376
 160     0.0000659121506798
 161    -0.0007386435321815
 162     0.0001110759158447
 163     0.0001825473198586
 164    -0.0032060928422141
 165    -0.0029880848822003
 166     0.0000635237527772
 167    -0.0000339108993459
 168    -0.0000188579960530
 169    -0.0000836017583523
 170    -0.0024531044995864
 171     0.0004775429321677
 172    -0.0010654355495035
 173    -0.0004465737698573
 174     0.0001030107766278
 175     0.0000688401484636
 176    -0.0000068630499051
 177    -0.0000240663410972
 178     0.0000002725203474
 179    -0.0000524576500577
 180     0.0000147371287340
 181    -0.0001751410565279
 182     0.0002140364565461
 183     0.0006367089491123
 184     0.0001898780767996
 185     0.0000302593447398
 186     0.0000369322376531
 187     0.0043536382571530
 188     0.0011789520597188
 189    -0.0000076221990160
 190     0.0000083068444274
 191    -0.0000337552326289
 192    -0.0006355616393873
 193    -0.0025644531154615
 194    -0.0007565522321022
 195     0.0001286137207368
 196    -0.0001850335259017
 197    -0.0000176330551963
 198     0.0000980078746962
 199    -0.0000225854173589
 200    -0.0000222565345472
 201    -0.0001600996326082
 202     0.0000632359872328
 203    -0.0002516664294957
 204    -0.0000720616395654
 205     0.0004874234608604
 206    -0.0011683087104637
 207     0.0005123437406388
 208    -0.0001976361736976
 209    -0.0003073402473725
 210     0.0097338474453817
 211    -0.0024480933299566
 212     0.0003004194096813
 213     0.0000733878559628
 214     0.0002758627716047
 215     0.0065202361586503
 216    -0.0039565050878549
 217     0.0075335409830549
 218     0.0000799841094225
 219     0.0008907847755948
 220     0.0008642614604025
 221     0.0000345560334750
 222     0.0000203420365244
 223    -0.0000786753767997
 224     0.0001657664708204
 225     0.0000437974875377
 226     0.0009187501884081
 227     0.0034726704074072
 228    -0.0016383840133188
 229    -0.0006167965410502
 230    -0.0017286394077608
 231     0.0000094238944456
 232    -0.0003624793243842
 233     0.0005966867792599
 234    -0.0000210661355420
 235    -0.0000009417825488
 236    -0.0000065598513505
 237     0.0001140628708024
 238     0.0002964665895618
 239     0.0000561039868436
 240    -0.0000346467395338
 241    -0.0018293128883288
 242    -0.0005175053818479
 243     0.0000414240433968
 244     0.0000086635393584
 245     0.0000195369305501
 246     0.0006359830142266
 247     0.0005245232540463
 248     0.0003426369476516
 249    -0.0003124968839154
 250     0.0010714785649725
 251     0.0014362585437738
 252     0.0000427965730594
 253     0.0001959168226005
 254     0.0000278234761372
 255    -0.0011690756849466
 256    -0.0006718209804587
 257    -0.0004797711336937
 258     0.0000579308503743
 259     0.0005276400550218
 260    -0.0006122494611693
 261    -0.0000159145154469
 262     0.0000144803086870
 263     0.0000025758199565
 264    -0.0001552758120294
 265    -0.0000818738642396
 266     0.0000243519666011
 267     0.0000406421244647
 268    -0.0019519549252904
 269     0.0007164656807826
 270     0.0000408703909484
 271     0.0000276975963595
 272     0.0000214829237995
 273     0.0000680827385065
 274    -0.0003122799358820
 275    -0.0003350246434009
 276     0.0000057487074467
 277    -0.0014112422134436
 278    -0.0005175528005367
 279     0.0000317915691150
 280     0.0000167102084564
 281    -0.0000266190508106
 282    -0.0002620332327989
 283    -0.0002452827213736
 284     0.0001184062418281
 285    -0.0000251861125400
 286     0.0010767691846031
 287    -0.0001232156103693
 288    -0.0000148796662903
 289    -0.0000349717913220
 290    -0.0000284267243157
 291     0.0000858609572417
 292    -0.0005069760685967
 293    -0.0002291676407870
 294    -0.0001822710827743
 295     0.0032383174923595
 296     0.0004205684251891
 297    -0.0000089825912763
 298     0.0000481230381615
 299    -0.0001554695934259
 300     0.0008147686526596
 301    -0.0005396241160079
 302     0.0007070718234776
 Ene=  -11.286804
 Spin=  Alpha
 Occup=    2.000000
   1    -0.0000468855345496
   2    -0.0000724960189420
   3     0.0025857867085571
   4    -0.0018661390842804
   5     0.0000003595411674
   6     0.0000176633035488
   7    -0.0000104426236512
   8    -0.0020609027117667
   9     0.0014158439467137
  10    -0.0006342025671809
  11    -0.0007970687263759
  12    -0.0008055382118283
  13    -0.0004355805348734
  14    -0.0000414619047116
  15     0.0000282654946384
  16    -0.0000109111289352
  17     0.0000124875263200
  18     0.0000038443315685
  19     0.0001537949133092
  20     0.0001525357339764
  21    -0.0001358180769766
  22     0.0006655398645230
  23    -0.0003934753103832
  24     0.0003678878801138
  25     0.0000265506978586
  26     0.0021220818214720
  27    -0.0059503514044511
  28     0.0000187981187831
  29    -0.0000371276695968
  30     0.0000005678921412
  31    -0.0017313951859891
  32     0.0014550554328050
  33     0.0000356420223646
  34     0.0016296189213585
  35    -0.0024453936389475
  36     0.0006382442473953
  37     0.0000025844613726
  38    -0.0000033982346482
  39     0.0000164043802889
  40     0.0000442948241800
  41     0.0000524563476825
  42     0.0000285540126803
  43    -0.0001292239272766
  44    -0.0004130081705399
  45     0.0008899550886770
  46    -0.0008843997022881
  47     0.0318483909608095
  48     0.0002955782930464
  49    -0.0026001709609230
  50     0.0069922522297406
  51    -0.0001065750112860
  52    -0.0000642119130766
  53    -0.0001097771037968
  54    -0.0031428458659713
  55     0.0015738032694314
  56    -0.0022959774752996
  57     0.0037333005633766
  58    -0.0015367662837836
  59     0.0016866180278066
  60     0.0000766946613076
  61     0.0001249683205541
  62     0.0000774274070678
  63     0.0001417763948330
  64    -0.0000460839676867
  65     0.0000850056921709
  66     0.0002472912873291
  67     0.0009605351201012
  68     0.0008919247311263
  69     0.0003901263105958
  70    -0.0000831934984175
  71    -0.0004592772260830
  72    -0.0015854425221910
  73    -0.0108854963112591
  74     0.0003714008379766
  75    -0.0000177632920648
  76     0.0002051962196248
  77    -0.0001678914511345
  78    -0.0004380587106391
  79    -0.0005389936390768
  80    -0.0013131780338169
  81     0.0026672432170452
  82    -0.0009609309718433
  83     0.0000190184699443
  84     0.0000827682022856
  85     0.0000142983249994
  86     0.0000172780588406
  87     0.0000690709921973
  88     0.0005468420824573
  89     0.0014036252679117
  90     0.0001691611141428
  91     0.0007806350231571
  92    -0.0005121683533568
  93     0.0004348815564363
  94     0.0007111131119337
  95    -0.0034504113370619
  96    -0.0009128151188440
  97    -0.0000920920785082