[Molden Format]
[Atoms] Angs
 c       1                    6  2.382210399396e+00 -5.596461815333e-01  6.677852773006e-01
 c       2                    6  2.211927857604e+00  8.624640385126e-01  8.783196588193e-01
 c       3                    6  9.835767059164e-01  1.469745852356e+00  6.935409021683e-01
 n       4                    7 -1.300914061605e-01  6.742942075552e-01  4.543463944953e-01
 b       5                    5 -5.957070811677e-02 -7.731133660735e-01  3.582915964668e-01
 c       6                    6  1.313796183310e+00 -1.419843672534e+00  4.272759802828e-01
 c       7                    6 -1.302845901163e+00 -1.108317180590e+00 -5.818874896275e-01
 c       8                    6 -2.709788130908e+00 -5.835785932670e-01 -4.806344119055e-01
 c       9                    6 -2.436189562368e+00  7.579759913178e-01 -5.896701568899e-01
 c      10                    6 -9.598932587136e-01  5.758604197500e-01 -7.807866026258e-01
 h      11                    1  3.409726458703e+00 -9.487316253529e-01  6.695676730255e-01
 h      12                    1  3.082246986136e+00  1.481960585606e+00  1.110350167139e+00
 h      13                    1  8.474441363884e-01  2.555735915496e+00  7.734567304357e-01
 h      14                    1  1.520541965483e+00 -2.463944251086e+00  1.635607680756e-01
 h      15                    1 -1.083893429253e+00 -1.915482495584e+00 -1.299539027578e+00
 h      16                    1 -3.651072522214e+00 -1.137467574216e+00 -3.947129314041e-01
 h      17                    1 -3.000965020559e+00  1.671898296765e+00 -3.770368510782e-01
 h      18                    1 -4.171607534814e-01  8.601896328783e-01 -1.692227677099e+00
[GTO]
1
 s           8
      6.665000000000e+03      6.915839628130e-04
      1.000000000000e+03      5.325796152934e-03
      2.280000000000e+02      2.706072104203e-02
      6.471000000000e+01      1.016568461408e-01
      2.106000000000e+01      2.745748236174e-01
      7.495000000000e+00      4.482943189238e-01
      2.797000000000e+00      2.849026107152e-01
      5.215000000000e-01      1.519485920608e-02
 s           8
      6.665000000000e+03     -2.932696526865e-04
      1.000000000000e+03     -2.318035473975e-03
      2.280000000000e+02     -1.149978603857e-02
      6.471000000000e+01     -4.682672700979e-02
      2.106000000000e+01     -1.284661687505e-01
      7.495000000000e+00     -3.012662724629e-01
      2.797000000000e+00     -2.556307023301e-01
      5.215000000000e-01      1.093793361012e+00
 s           1
      1.596000000000e-01      1.000000000000e+00
 s           1
      4.690000000000e-02      1.000000000000e+00
 p           3
      9.439000000000e+00      5.697925159004e-02
      2.002000000000e+00      3.132072115007e-01
      5.456000000000e-01      7.603767417375e-01
 p           1
      1.517000000000e-01      1.000000000000e+00
 p           1
      4.041000000000e-02      1.000000000000e+00
 d           1
      5.500000000000e-01      1.000000000000e+00
 d           1
      1.510000000000e-01      1.000000000000e+00

2
 s           8
      6.665000000000e+03      6.915839628130e-04
      1.000000000000e+03      5.325796152934e-03
      2.280000000000e+02      2.706072104203e-02
      6.471000000000e+01      1.016568461408e-01
      2.106000000000e+01      2.745748236174e-01
      7.495000000000e+00      4.482943189238e-01
      2.797000000000e+00      2.849026107152e-01
      5.215000000000e-01      1.519485920608e-02
 s           8
      6.665000000000e+03     -2.932696526865e-04
      1.000000000000e+03     -2.318035473975e-03
      2.280000000000e+02     -1.149978603857e-02
      6.471000000000e+01     -4.682672700979e-02
      2.106000000000e+01     -1.284661687505e-01
      7.495000000000e+00     -3.012662724629e-01
      2.797000000000e+00     -2.556307023301e-01
      5.215000000000e-01      1.093793361012e+00
 s           1
      1.596000000000e-01      1.000000000000e+00
 s           1
      4.690000000000e-02      1.000000000000e+00
 p           3
      9.439000000000e+00      5.697925159004e-02
      2.002000000000e+00      3.132072115007e-01
      5.456000000000e-01      7.603767417375e-01
 p           1
      1.517000000000e-01      1.000000000000e+00
 p           1
      4.041000000000e-02      1.000000000000e+00
 d           1
      5.500000000000e-01      1.000000000000e+00
 d           1
      1.510000000000e-01      1.000000000000e+00

3
 s           8
      6.665000000000e+03      6.915839628130e-04
      1.000000000000e+03      5.325796152934e-03
      2.280000000000e+02      2.706072104203e-02
      6.471000000000e+01      1.016568461408e-01
      2.106000000000e+01      2.745748236174e-01
      7.495000000000e+00      4.482943189238e-01
      2.797000000000e+00      2.849026107152e-01
      5.215000000000e-01      1.519485920608e-02
 s           8
      6.665000000000e+03     -2.932696526865e-04
      1.000000000000e+03     -2.318035473975e-03
      2.280000000000e+02     -1.149978603857e-02
      6.471000000000e+01     -4.682672700979e-02
      2.106000000000e+01     -1.284661687505e-01
      7.495000000000e+00     -3.012662724629e-01
      2.797000000000e+00     -2.556307023301e-01
      5.215000000000e-01      1.093793361012e+00
 s           1
      1.596000000000e-01      1.000000000000e+00
 s           1
      4.690000000000e-02      1.000000000000e+00
 p           3
      9.439000000000e+00      5.697925159004e-02
      2.002000000000e+00      3.132072115007e-01
      5.456000000000e-01      7.603767417375e-01
 p           1
      1.517000000000e-01      1.000000000000e+00
 p           1
      4.041000000000e-02      1.000000000000e+00
 d           1
      5.500000000000e-01      1.000000000000e+00
 d           1
      1.510000000000e-01      1.000000000000e+00

4
 s           8
      9.046000000000e+03      6.996174134255e-04
      1.357000000000e+03      5.386054629929e-03
      3.093000000000e+02      2.739102118906e-02
      8.773000000000e+01      1.031505919820e-01
      2.856000000000e+01      2.785706633174e-01
      1.021000000000e+01      4.482948494541e-01
      3.838000000000e+00      2.780859283953e-01
      7.466000000000e-01      1.543156123327e-02
 s           8
      9.046000000000e+03     -3.049900959534e-04
      1.357000000000e+03     -2.408026378508e-03
      3.093000000000e+02     -1.194444872518e-02
      8.773000000000e+01     -4.892599290902e-02
      2.856000000000e+01     -1.344727247250e-01
      1.021000000000e+01     -3.151125777001e-01
      3.838000000000e+00     -2.428578325496e-01
      7.466000000000e-01      1.094382206854e+00
 s           1
      2.248000000000e-01      1.000000000000e+00
 s           1
      6.124000000000e-02      1.000000000000e+00
 p           3
      1.355000000000e+01      5.890567677213e-02
      2.917000000000e+00      3.204611067143e-01
      7.973000000000e-01      7.530420617921e-01
 p           1
      2.185000000000e-01      1.000000000000e+00
 p           1
      5.611000000000e-02      1.000000000000e+00
 d           1
      8.170000000000e-01      1.000000000000e+00
 d           1
      2.300000000000e-01      1.000000000000e+00

5
 s           8
      4.570000000000e+03      6.955544180306e-04
      6.859000000000e+02      5.349572988100e-03
      1.565000000000e+02      2.711662870523e-02
      4.447000000000e+01      1.013150961206e-01
      1.448000000000e+01      2.718808293065e-01
      5.131000000000e+00      4.481159306152e-01
      1.898000000000e+00      2.899372621010e-01
      3.329000000000e-01      1.431283099861e-02
 s           8
      4.570000000000e+03     -2.812802240142e-04
      6.859000000000e+02     -2.219887811105e-03
      1.565000000000e+02     -1.101647150743e-02
      4.447000000000e+01     -4.434918985248e-02
      1.448000000000e+01     -1.209120479502e-01
      5.131000000000e+00     -2.807378995535e-01
      1.898000000000e+00     -2.660668087326e-01
      3.329000000000e-01      1.091784130514e+00
 s           1
      1.043000000000e-01      1.000000000000e+00
 s           1
      3.105000000000e-02      1.000000000000e+00
 p           3
      6.001000000000e+00      5.416586334015e-02
      1.241000000000e+00      3.023798901809e-01
      3.364000000000e-01      7.712922165481e-01
 p           1
      9.538000000000e-02      1.000000000000e+00
 p           1
      2.378000000000e-02      1.000000000000e+00
 d           1
      3.430000000000e-01      1.000000000000e+00
 d           1
      9.040000000000e-02      1.000000000000e+00

6
 s           8
      6.665000000000e+03      6.915839628130e-04
      1.000000000000e+03      5.325796152934e-03
      2.280000000000e+02      2.706072104203e-02
      6.471000000000e+01      1.016568461408e-01
      2.106000000000e+01      2.745748236174e-01
      7.495000000000e+00      4.482943189238e-01
      2.797000000000e+00      2.849026107152e-01
      5.215000000000e-01      1.519485920608e-02
 s           8
      6.665000000000e+03     -2.932696526865e-04
      1.000000000000e+03     -2.318035473975e-03
      2.280000000000e+02     -1.149978603857e-02
      6.471000000000e+01     -4.682672700979e-02
      2.106000000000e+01     -1.284661687505e-01
      7.495000000000e+00     -3.012662724629e-01
      2.797000000000e+00     -2.556307023301e-01
      5.215000000000e-01      1.093793361012e+00
 s           1
      1.596000000000e-01      1.000000000000e+00
 s           1
      4.690000000000e-02      1.000000000000e+00
 p           3
      9.439000000000e+00      5.697925159004e-02
      2.002000000000e+00      3.132072115007e-01
      5.456000000000e-01      7.603767417375e-01
 p           1
      1.517000000000e-01      1.000000000000e+00
 p           1
      4.041000000000e-02      1.000000000000e+00
 d           1
      5.500000000000e-01      1.000000000000e+00
 d           1
      1.510000000000e-01      1.000000000000e+00

7
 s           8
      6.665000000000e+03      6.915839628130e-04
      1.000000000000e+03      5.325796152934e-03
      2.280000000000e+02      2.706072104203e-02
      6.471000000000e+01      1.016568461408e-01
      2.106000000000e+01      2.745748236174e-01
      7.495000000000e+00      4.482943189238e-01
      2.797000000000e+00      2.849026107152e-01
      5.215000000000e-01      1.519485920608e-02
 s           8
      6.665000000000e+03     -2.932696526865e-04
      1.000000000000e+03     -2.318035473975e-03
      2.280000000000e+02     -1.149978603857e-02
      6.471000000000e+01     -4.682672700979e-02
      2.106000000000e+01     -1.284661687505e-01
      7.495000000000e+00     -3.012662724629e-01
      2.797000000000e+00     -2.556307023301e-01
      5.215000000000e-01      1.093793361012e+00
 s           1
      1.596000000000e-01      1.000000000000e+00
 s           1
      4.690000000000e-02      1.000000000000e+00
 p           3
      9.439000000000e+00      5.697925159004e-02
      2.002000000000e+00      3.132072115007e-01
      5.456000000000e-01      7.603767417375e-01
 p           1
      1.517000000000e-01      1.000000000000e+00
 p           1
      4.041000000000e-02      1.000000000000e+00
 d           1
      5.500000000000e-01      1.000000000000e+00
 d           1
      1.510000000000e-01      1.000000000000e+00

8
 s           8
      6.665000000000e+03      6.915839628130e-04
      1.000000000000e+03      5.325796152934e-03
      2.280000000000e+02      2.706072104203e-02
      6.471000000000e+01      1.016568461408e-01
      2.106000000000e+01      2.745748236174e-01
      7.495000000000e+00      4.482943189238e-01
      2.797000000000e+00      2.849026107152e-01
      5.215000000000e-01      1.519485920608e-02
 s           8
      6.665000000000e+03     -2.932696526865e-04
      1.000000000000e+03     -2.318035473975e-03
      2.280000000000e+02     -1.149978603857e-02
      6.471000000000e+01     -4.682672700979e-02
      2.106000000000e+01     -1.284661687505e-01
      7.495000000000e+00     -3.012662724629e-01
      2.797000000000e+00     -2.556307023301e-01
      5.215000000000e-01      1.093793361012e+00
 s           1
      1.596000000000e-01      1.000000000000e+00
 s           1
      4.690000000000e-02      1.000000000000e+00
 p           3
      9.439000000000e+00      5.697925159004e-02
      2.002000000000e+00      3.132072115007e-01
      5.456000000000e-01      7.603767417375e-01
 p           1
      1.517000000000e-01      1.000000000000e+00
 p           1
      4.041000000000e-02      1.000000000000e+00
 d           1
      5.500000000000e-01      1.000000000000e+00
 d           1
      1.510000000000e-01      1.000000000000e+00

9
 s           8
      6.665000000000e+03      6.915839628130e-04
      1.000000000000e+03      5.325796152934e-03
      2.280000000000e+02      2.706072104203e-02
      6.471000000000e+01      1.016568461408e-01
      2.106000000000e+01      2.745748236174e-01
      7.495000000000e+00      4.482943189238e-01
      2.797000000000e+00      2.849026107152e-01
      5.215000000000e-01      1.519485920608e-02
 s           8
      6.665000000000e+03     -2.932696526865e-04
      1.000000000000e+03     -2.318035473975e-03
      2.280000000000e+02     -1.149978603857e-02
      6.471000000000e+01     -4.682672700979e-02
      2.106000000000e+01     -1.284661687505e-01
      7.495000000000e+00     -3.012662724629e-01
      2.797000000000e+00     -2.556307023301e-01
      5.215000000000e-01      1.093793361012e+00
 s           1
      1.596000000000e-01      1.000000000000e+00
 s           1
      4.690000000000e-02      1.000000000000e+00
 p           3
      9.439000000000e+00      5.697925159004e-02
      2.002000000000e+00      3.132072115007e-01
      5.456000000000e-01      7.603767417375e-01
 p           1
      1.517000000000e-01      1.000000000000e+00
 p           1
      4.041000000000e-02      1.000000000000e+00
 d           1
      5.500000000000e-01      1.000000000000e+00
 d           1
      1.510000000000e-01      1.000000000000e+00

10
 s           8
      6.665000000000e+03      6.915839628130e-04
      1.000000000000e+03      5.325796152934e-03
      2.280000000000e+02      2.706072104203e-02
      6.471000000000e+01      1.016568461408e-01
      2.106000000000e+01      2.745748236174e-01
      7.495000000000e+00      4.482943189238e-01
      2.797000000000e+00      2.849026107152e-01
      5.215000000000e-01      1.519485920608e-02
 s           8
      6.665000000000e+03     -2.932696526865e-04
      1.000000000000e+03     -2.318035473975e-03
      2.280000000000e+02     -1.149978603857e-02
      6.471000000000e+01     -4.682672700979e-02
      2.106000000000e+01     -1.284661687505e-01
      7.495000000000e+00     -3.012662724629e-01
      2.797000000000e+00     -2.556307023301e-01
      5.215000000000e-01      1.093793361012e+00
 s           1
      1.596000000000e-01      1.000000000000e+00
 s           1
      4.690000000000e-02      1.000000000000e+00
 p           3
      9.439000000000e+00      5.697925159004e-02
      2.002000000000e+00      3.132072115007e-01
      5.456000000000e-01      7.603767417375e-01
 p           1
      1.517000000000e-01      1.000000000000e+00
 p           1
      4.041000000000e-02      1.000000000000e+00
 d           1
      5.500000000000e-01      1.000000000000e+00
 d           1
      1.510000000000e-01      1.000000000000e+00

11
 s           3
      1.301000000000e+01      3.349872639000e-02
      1.962000000000e+00      2.348008011741e-01
      4.446000000000e-01      8.136829578829e-01
 s           1
      1.220000000000e-01      1.000000000000e+00
 s           1
      2.974000000000e-02      1.000000000000e+00
 p           1
      7.270000000000e-01      1.000000000000e+00
 p           1
      1.410000000000e-01      1.000000000000e+00

12
 s           3
      1.301000000000e+01      3.349872639000e-02
      1.962000000000e+00      2.348008011741e-01
      4.446000000000e-01      8.136829578829e-01
 s           1
      1.220000000000e-01      1.000000000000e+00
 s           1
      2.974000000000e-02      1.000000000000e+00
 p           1
      7.270000000000e-01      1.000000000000e+00
 p           1
      1.410000000000e-01      1.000000000000e+00

13
 s           3
      1.301000000000e+01      3.349872639000e-02
      1.962000000000e+00      2.348008011741e-01
      4.446000000000e-01      8.136829578829e-01
 s           1
      1.220000000000e-01      1.000000000000e+00
 s           1
      2.974000000000e-02      1.000000000000e+00
 p           1
      7.270000000000e-01      1.000000000000e+00
 p           1
      1.410000000000e-01      1.000000000000e+00

14
 s           3
      1.301000000000e+01      3.349872639000e-02
      1.962000000000e+00      2.348008011741e-01
      4.446000000000e-01      8.136829578829e-01
 s           1
      1.220000000000e-01      1.000000000000e+00
 s           1
      2.974000000000e-02      1.000000000000e+00
 p           1
      7.270000000000e-01      1.000000000000e+00
 p           1
      1.410000000000e-01      1.000000000000e+00

15
 s           3
      1.301000000000e+01      3.349872639000e-02
      1.962000000000e+00      2.348008011741e-01
      4.446000000000e-01      8.136829578829e-01
 s           1
      1.220000000000e-01      1.000000000000e+00
 s           1
      2.974000000000e-02      1.000000000000e+00
 p           1
      7.270000000000e-01      1.000000000000e+00
 p           1
      1.410000000000e-01      1.000000000000e+00

16
 s           3
      1.301000000000e+01      3.349872639000e-02
      1.962000000000e+00      2.348008011741e-01
      4.446000000000e-01      8.136829578829e-01
 s           1
      1.220000000000e-01      1.000000000000e+00
 s           1
      2.974000000000e-02      1.000000000000e+00
 p           1
      7.270000000000e-01      1.000000000000e+00
 p           1
      1.410000000000e-01      1.000000000000e+00

17
 s           3
      1.301000000000e+01      3.349872639000e-02
      1.962000000000e+00      2.348008011741e-01
      4.446000000000e-01      8.136829578829e-01
 s           1
      1.220000000000e-01      1.000000000000e+00
 s           1
      2.974000000000e-02      1.000000000000e+00
 p           1
      7.270000000000e-01      1.000000000000e+00
 p           1
      1.410000000000e-01      1.000000000000e+00

18
 s           3
      1.301000000000e+01      3.349872639000e-02
      1.962000000000e+00      2.348008011741e-01
      4.446000000000e-01      8.136829578829e-01
 s           1
      1.220000000000e-01      1.000000000000e+00
 s           1
      2.974000000000e-02      1.000000000000e+00
 p           1
      7.270000000000e-01      1.000000000000e+00
 p           1
      1.410000000000e-01      1.000000000000e+00


[5D]
[7F]
[9G]
[MO]
 Ene=  -15.586350
 Spin=  Alpha
 Occup=    2.000000
   1     0.0000674068564501
   2     0.0001243764564284
   3    -0.0046466569757716
   4    -0.0070900099615298
   5    -0.0000100428999757
   6     0.0000015606178488
   7    -0.0000002470214695
   8     0.0012914637302091
   9    -0.0071040202238459
  10    -0.0010869534256334
  11     0.0034638112399710
  12     0.0033385821959036
  13     0.0010879498829822
  14    -0.0000015216124332
  15    -0.0000029268416026
  16    -0.0000058946564735
  17     0.0000276259574024
  18    -0.0000148637667715
  19     0.0000288853393274
  20     0.0005228359866514
  21     0.0001961513949494
  22     0.0002180167146912
  23     0.0024354176239155
  24    -0.0000037060426559
  25     0.0000202745145568
  26    -0.0075093548815812
  27     0.0126547156833600
  28    -0.0001068727613903
  29     0.0000365797080485
  30     0.0000153144523611
  31     0.0044644486671139
  32    -0.0097915964488747
  33    -0.0000748896378524
  34    -0.0049439922769967
  35     0.0021692457678935
  36    -0.0006890611754206
  37     0.0000105649512264
  38     0.0000217050981214
  39     0.0000051263438401
  40     0.0000910808575054
  41     0.0000000265980145
  42    -0.0005112049157070
  43     0.0000819782471022
  44     0.0009918345021997
  45    -0.0024372118579611
  46     0.0029594025219921
  47    -0.0002226587248304
  48    -0.0003445974084343
  49     0.0009958235211997
  50    -0.0265155694409301
  51     0.0002858152655805
  52     0.0001850472017608
  53     0.0001038914301919
  54     0.0144209416000615
  55     0.0040750142308520
  56     0.0027481610959196
  57    -0.0023033294459781
  58     0.0049919166780874
  59     0.0000722673441123
  60     0.0000457833804229
  61     0.0000583675119245
  62     0.0000353522555442
  63     0.0000999712701195
  64     0.0001905983861975
  65     0.0008089238635027
  66    -0.0002752492294083
  67    -0.0012675025016095
  68     0.0021669188497906
  69    -0.0057223108120844
  70    -1.0031864981691556
  71    -0.0055694897021445
  72     0.0278450759927474
  73     0.0171044173409144
  74    -0.0006246491320012
  75    -0.0001935225716359
  76     0.0009241126643885
  77     0.0016819892738707
  78     0.0014502988246220
  79    -0.0037574303591867
  80     0.0046346656602955
  81     0.0013925359424107
  82     0.0000108461002755
  83     0.0001181521924718
  84    -0.0000620696670241
  85    -0.0000964834772443
  86     0.0000159914432465
  87    -0.0001143221754516
  88     0.0001636401142967
  89     0.0017516694115014
  90     0.0008408682790391
  91     0.0010484405439814
  92     0.0014262600990027
  93    -0.0003373794654684
  94    -0.0006017452912886
  95    -0.0028185925951999
  96     0.0026850176570088
  97     0.0000441255428123
  98    -0.0003613838002484
  99     0.0000661951636138
 100    -0.0011514863321660
 101     0.0016757420021699
 102     0.0009278904938649
 103     0.0008757284160921
 104     0.0003477930641397
 105     0.0003103115145337
 106     0.0001749959898260
 107     0.0000062466357989
 108     0.0000311583907554
 109    -0.0001289871366356
 110    -0.0000035644250900
 111    -0.0006383410588136
 112    -0.0001885242888008
 113     0.0001555926677004
 114    -0.0011797976780310
 115     0.0004551117206608
 116    -0.0000149542895684
 117     0.0000029049677027
 118    -0.0025878350603875
 119     0.0096132276851878
 120    -0.0000376070080568
 121     0.0000417818556709
 122     0.0000082751316516
 123    -0.0034224725360683
 124    -0.0003054812905869
 125    -0.0004522447567434
 126     0.0024276074708605
 127     0.0012570550489764
 128     0.0002557555468503
 129    -0.0000689558959049
 130    -0.0000026182010200
 131    -0.0000015408939480
 132    -0.0000250163053657
 133    -0.0000852902953236
 134     0.0001504232637176
 135    -0.0000316999940414
 136     0.0000475331950626
 137    -0.0010731097461384
 138    -0.0005327904882753
 139    -0.0000897149845978
 140    -0.0001345253913401
 141     0.0016033052246426
 142    -0.0013210653142229
 143     0.0000458557462870
 144     0.0000645103163696
 145    -0.0000013239156622
 146     0.0024351278172405
 147     0.0026024425804396
 148     0.0017904292787629
 149    -0.0008912183128850
 150    -0.0003339396486884
 151     0.0003839034556284
 152    -0.0000218224288931
 153     0.0000007506487475
 154     0.0000405477647758
 155    -0.0000776206989134
 156     0.0000675237940440
 157    -0.0002709588135067
 158     0.0005322202658920
 159     0.0006106309973935
 160    -0.0005167641189032
 161     0.0009893985862403
 162    -0.0000856069548971
 163    -0.0001397822292824
 164     0.0026957944877750
 165     0.0014803858386259
 166    -0.0000449946463129
 167     0.0000253741862836
 168    -0.0000048982700820
 169     0.0005923812909617
 170    -0.0000305278400981
 171    -0.0003974946491653
 172     0.0005226259455138
 173     0.0009811560883418
 174     0.0000862079068485
 175    -0.0000623897186372
 176     0.0000303412728652
 177     0.0000273435353193
 178     0.0000034845865270
 179     0.0000017667260021
 180     0.0000269290494625
 181    -0.0001283764040656
 182    -0.0002828459146609
 183    -0.0000149047980679
 184    -0.0003487002226454
 185    -0.0000547927225082
 186    -0.0000756385731329
 187    -0.0032850879117859
 188     0.0017284213115107
 189     0.0000052896460213
 190    -0.0000054175681274
 191     0.0000326948887686
 192    -0.0004138086738422
 193     0.0009028537544939
 194     0.0008779264486153
 195     0.0011121858119498
 196     0.0000910870799768
 197    -0.0000313351348562
 198    -0.0000811039653231
 199     0.0000915243273317
 200    -0.0000059473781976
 201     0.0001269550141673
 202    -0.0000756288117547
 203     0.0003813070451840
 204     0.0001851530445445
 205    -0.0003035033266594
 206     0.0004587137125648
 207    -0.0002558197025403
 208     0.0002018885082508
 209     0.0003004879293928
 210    -0.0098158744900375
 211    -0.0030874107255564
 212    -0.0002283459247042
 213    -0.0001302304462651
 214    -0.0003302587251091
 215    -0.0051779879021746
 216     0.0026289339345197
 217    -0.0089387179261068
 218     0.0015458642625769
 219    -0.0006347772030663
 220    -0.0011515433670186
 221    -0.0000166115981348
 222    -0.0000204673957584
 223    -0.0000067993177739
 224    -0.0001998066591592
 225    -0.0000676019474429
 226    -0.0029843994264763
 227    -0.0029438853292319
 228     0.0014911029419347
 229     0.0016028776660605
 230     0.0002907242443633
 231    -0.0000206778334395
 232     0.0000832855329039
 233    -0.0006829301208667
 234     0.0000163895993117
 235    -0.0000004358460994
 236    -0.0000031309889485
 237    -0.0000863761327628
 238    -0.0004034922589631
 239    -0.0001493579388778
 240    -0.0000328489061949
 241     0.0004577546696089
 242     0.0005559947699165
 243    -0.0000529886675786
 244    -0.0000185896821648
 245    -0.0000230565278076
 246    -0.0004474588361323
 247    -0.0005424919015670
 248    -0.0002151374303851
 249     0.0002481691901497
 250     0.0000741262174394
 251    -0.0019039405520290
 252    -0.0000446627451135
 253    -0.0001318344240931
 254    -0.0000288991069214
 255     0.0014346646911281
 256     0.0004451243260661
 257     0.0003250589049147
 258    -0.0000585011741876
 259    -0.0010906967456242
 260     0.0004082368769444
 261     0.0000138537658050
 262    -0.0000096194461771
 263    -0.0000072353140807
 264     0.0002498652528601
 265    -0.0000183909172197
 266    -0.0001305111207058
 267    -0.0000004016519589
 268     0.0019480392525619
 269     0.0004637965475050
 270    -0.0000019646471141
 271    -0.0000176413304335
 272    -0.0000232410907977
 273     0.0002459684293624
 274     0.0005672397757294
 275     0.0002550101539318
 276    -0.0000206965360772
 277     0.0000720906767709
 278     0.0005786174220202
 279    -0.0000221530155015
 280    -0.0000123674084014
 281     0.0000108158660276
 282    -0.0000515252851144
 283    -0.0000648335270798
 284    -0.0000976168104749
 285     0.0000379782445463
 286    -0.0007116290589657
 287     0.0004424343591999
 288    -0.0000141959492763
 289     0.0000254600442076
 290     0.0000091814595223
 291    -0.0001550766491170
 292     0.0003843557154798
 293     0.0000534485113698
 294     0.0001700617430696
 295    -0.0024787589914493
 296    -0.0006088796670138
 297    -0.0000250564326917
 298    -0.0000053366360991
 299     0.0001827335122079
 300    -0.0009420141499893
 301     0.0004378937093334
 302    -0.0007472419726132
 Ene=  -11.309382
 Spin=  Alpha
 Occup=    2.000000
   1     0.0000403319378553
   2     0.0000689532687602
   3    -0.0046049168015848
   4    -0.0006710138696136
   5     0.0000189079686627
   6    -0.0000116774513329
   7     0.0000009189932569
   8    -0.0004876901294539
   9    -0.0048140711901565
  10    -0.0006104309440502
  11    -0.0003684024500301
  12    -0.0008330578072311
  13    -0.0003033828354826
  14     0.0000217704169646
  15    -0.0000203016883570
  16    -0.0000131843165973
  17    -0.0000060609910704
  18     0.0000364500992864
  19    -0.0000732894965611
  20     0.0002741243653047
  21    -0.0003018937315632
  22     0.0010694244892963
  23     0.0008595108895205
  24    -0.0000304396565156
  25    -0.0000374988809257
  26    -0.0079664933962237
  27    -0.0021462413513872
  28     0.0001158037652941
  29    -0.0000301379762776
  30     0.0000429209930792
  31     0.0078856523284254
  32    -0.0066050104198154
  33     0.0008949094161655
  34     0.0012304322747520
  35    -0.0009208148035907
  36     0.0001473752804745
  37     0.0000192694552324
  38    -0.0000280474127074
  39     0.0000028900273439
  40    -0.0000497262371509
  41     0.0000033278976431
  42    -0.0001113638293924
  43    -0.0003957539106684
  44     0.0005872512399526
  45    -0.0032188871130343
  46     0.0013441252266412
  47     0.0003720405388718
  48    -0.0000830826382329
  49     0.0115766394570660
  50    -0.0005928827808364
  51    -0.0002502974447611
  52    -0.0001024917301073
  53    -0.0001360275601381
  54     0.0085997001300504
  55    -0.0041827160212362
  56     0.0007858052997216
  57     0.0022807209403083
  58    -0.0009345666034913
  59     0.0005671383294629
  60    -0.0000580811148462
  61     0.0000787066400862
  62     0.0000851414250999
  63    -0.0001042211792339
  64    -0.0000675818854428
  65    -0.0004374810689757
  66     0.0001776143694922
  67    -0.0005805645109064
  68     0.0005912075123064
  69    -0.0042788712648803
  70    -0.0001424467821102
  71    -0.0005993642155721
  72     0.0026408731772905
  73     0.0001195068447974
  74     0.0004027445683083
  75    -0.0000060373213529
  76     0.0001417635626496
  77     0.0013049333885780
  78     0.0006166450194798
  79    -0.0000390036655213
  80     0.0038857236568351
  81     0.0031599301663115
  82    -0.0003284097048280
  83     0.0000068706960215
  84     0.0001201379823884
  85     0.0000494821797384
  86     0.0000711813367918
  87     0.0000743523571928
  88     0.0011609185046814
  89     0.0001972419106709
  90     0.0002287345860855
  91    -0.0007294757245765
  92    -0.0004515484586495
  93     0.0001151771015974
  94     0.0002183449670173
  95    -0.0056094320210635
  96    -0.0000371646273095
  97    -0.0001672888735402