[Molden Format]
[Atoms] Angs
 c       1                    6  2.424447503832e+00 -6.324541556494e-01  6.370766569416e-01
 c       2                    6  2.261002513412e+00  7.818403959345e-01  8.084884062986e-01
 c       3                    6  1.052907232012e+00  1.387228417408e+00  5.546368585571e-01
 n       4                    7 -2.653045143461e-02  6.347803486799e-01  1.109427662273e-01
 b       5                    5 -2.032306431016e-02 -8.302488194557e-01  4.708380560009e-02
 c       6                    6  1.346301471158e+00 -1.450982968082e+00  3.183854794829e-01
 c       7                    6 -1.343339424905e+00 -1.477692307438e+00 -3.745910380533e-01
 c       8                    6 -2.471261791046e+00 -6.737709001461e-01 -4.957177699841e-01
 c       9                    6 -2.311177825149e+00  7.425165850924e-01 -5.995983796589e-01
 c      10                    6 -1.059253189222e+00  1.310154684421e+00 -5.148455463308e-01
 h      11                    1  3.430966913244e+00 -1.047460664184e+00  7.532016447396e-01
 h      12                    1  3.097193513791e+00  1.421758237796e+00  1.102175319963e+00
 h      13                    1  8.618915102761e-01  2.452809962137e+00  7.210790394710e-01
 h      14                    1  1.527085913962e+00 -2.520788180092e+00  1.780440788667e-01
 h      15                    1 -1.427584917859e+00 -2.546388892766e+00 -6.043075021128e-01
 h      16                    1 -3.469265382461e+00 -1.090717368208e+00 -6.631765151214e-01
 h      17                    1 -3.147873521867e+00  1.389481430374e+00 -8.559838430529e-01
 h      18                    1 -7.251870034355e-01  2.149934194177e+00 -1.122893461834e+00
[GTO]
1
 s           8
      6.665000000000e+03      6.915839628130e-04
      1.000000000000e+03      5.325796152934e-03
      2.280000000000e+02      2.706072104203e-02
      6.471000000000e+01      1.016568461408e-01
      2.106000000000e+01      2.745748236174e-01
      7.495000000000e+00      4.482943189238e-01
      2.797000000000e+00      2.849026107152e-01
      5.215000000000e-01      1.519485920608e-02
 s           8
      6.665000000000e+03     -2.932696526865e-04
      1.000000000000e+03     -2.318035473975e-03
      2.280000000000e+02     -1.149978603857e-02
      6.471000000000e+01     -4.682672700979e-02
      2.106000000000e+01     -1.284661687505e-01
      7.495000000000e+00     -3.012662724629e-01
      2.797000000000e+00     -2.556307023301e-01
      5.215000000000e-01      1.093793361012e+00
 s           1
      1.596000000000e-01      1.000000000000e+00
 s           1
      4.690000000000e-02      1.000000000000e+00
 p           3
      9.439000000000e+00      5.697925159004e-02
      2.002000000000e+00      3.132072115007e-01
      5.456000000000e-01      7.603767417375e-01
 p           1
      1.517000000000e-01      1.000000000000e+00
 p           1
      4.041000000000e-02      1.000000000000e+00
 d           1
      5.500000000000e-01      1.000000000000e+00
 d           1
      1.510000000000e-01      1.000000000000e+00

2
 s           8
      6.665000000000e+03      6.915839628130e-04
      1.000000000000e+03      5.325796152934e-03
      2.280000000000e+02      2.706072104203e-02
      6.471000000000e+01      1.016568461408e-01
      2.106000000000e+01      2.745748236174e-01
      7.495000000000e+00      4.482943189238e-01
      2.797000000000e+00      2.849026107152e-01
      5.215000000000e-01      1.519485920608e-02
 s           8
      6.665000000000e+03     -2.932696526865e-04
      1.000000000000e+03     -2.318035473975e-03
      2.280000000000e+02     -1.149978603857e-02
      6.471000000000e+01     -4.682672700979e-02
      2.106000000000e+01     -1.284661687505e-01
      7.495000000000e+00     -3.012662724629e-01
      2.797000000000e+00     -2.556307023301e-01
      5.215000000000e-01      1.093793361012e+00
 s           1
      1.596000000000e-01      1.000000000000e+00
 s           1
      4.690000000000e-02      1.000000000000e+00
 p           3
      9.439000000000e+00      5.697925159004e-02
      2.002000000000e+00      3.132072115007e-01
      5.456000000000e-01      7.603767417375e-01
 p           1
      1.517000000000e-01      1.000000000000e+00
 p           1
      4.041000000000e-02      1.000000000000e+00
 d           1
      5.500000000000e-01      1.000000000000e+00
 d           1
      1.510000000000e-01      1.000000000000e+00

3
 s           8
      6.665000000000e+03      6.915839628130e-04
      1.000000000000e+03      5.325796152934e-03
      2.280000000000e+02      2.706072104203e-02
      6.471000000000e+01      1.016568461408e-01
      2.106000000000e+01      2.745748236174e-01
      7.495000000000e+00      4.482943189238e-01
      2.797000000000e+00      2.849026107152e-01
      5.215000000000e-01      1.519485920608e-02
 s           8
      6.665000000000e+03     -2.932696526865e-04
      1.000000000000e+03     -2.318035473975e-03
      2.280000000000e+02     -1.149978603857e-02
      6.471000000000e+01     -4.682672700979e-02
      2.106000000000e+01     -1.284661687505e-01
      7.495000000000e+00     -3.012662724629e-01
      2.797000000000e+00     -2.556307023301e-01
      5.215000000000e-01      1.093793361012e+00
 s           1
      1.596000000000e-01      1.000000000000e+00
 s           1
      4.690000000000e-02      1.000000000000e+00
 p           3
      9.439000000000e+00      5.697925159004e-02
      2.002000000000e+00      3.132072115007e-01
      5.456000000000e-01      7.603767417375e-01
 p           1
      1.517000000000e-01      1.000000000000e+00
 p           1
      4.041000000000e-02      1.000000000000e+00
 d           1
      5.500000000000e-01      1.000000000000e+00
 d           1
      1.510000000000e-01      1.000000000000e+00

4
 s           8
      9.046000000000e+03      6.996174134255e-04
      1.357000000000e+03      5.386054629929e-03
      3.093000000000e+02      2.739102118906e-02
      8.773000000000e+01      1.031505919820e-01
      2.856000000000e+01      2.785706633174e-01
      1.021000000000e+01      4.482948494541e-01
      3.838000000000e+00      2.780859283953e-01
      7.466000000000e-01      1.543156123327e-02
 s           8
      9.046000000000e+03     -3.049900959534e-04
      1.357000000000e+03     -2.408026378508e-03
      3.093000000000e+02     -1.194444872518e-02
      8.773000000000e+01     -4.892599290902e-02
      2.856000000000e+01     -1.344727247250e-01
      1.021000000000e+01     -3.151125777001e-01
      3.838000000000e+00     -2.428578325496e-01
      7.466000000000e-01      1.094382206854e+00
 s           1
      2.248000000000e-01      1.000000000000e+00
 s           1
      6.124000000000e-02      1.000000000000e+00
 p           3
      1.355000000000e+01      5.890567677213e-02
      2.917000000000e+00      3.204611067143e-01
      7.973000000000e-01      7.530420617921e-01
 p           1
      2.185000000000e-01      1.000000000000e+00
 p           1
      5.611000000000e-02      1.000000000000e+00
 d           1
      8.170000000000e-01      1.000000000000e+00
 d           1
      2.300000000000e-01      1.000000000000e+00

5
 s           8
      4.570000000000e+03      6.955544180306e-04
      6.859000000000e+02      5.349572988100e-03
      1.565000000000e+02      2.711662870523e-02
      4.447000000000e+01      1.013150961206e-01
      1.448000000000e+01      2.718808293065e-01
      5.131000000000e+00      4.481159306152e-01
      1.898000000000e+00      2.899372621010e-01
      3.329000000000e-01      1.431283099861e-02
 s           8
      4.570000000000e+03     -2.812802240142e-04
      6.859000000000e+02     -2.219887811105e-03
      1.565000000000e+02     -1.101647150743e-02
      4.447000000000e+01     -4.434918985248e-02
      1.448000000000e+01     -1.209120479502e-01
      5.131000000000e+00     -2.807378995535e-01
      1.898000000000e+00     -2.660668087326e-01
      3.329000000000e-01      1.091784130514e+00
 s           1
      1.043000000000e-01      1.000000000000e+00
 s           1
      3.105000000000e-02      1.000000000000e+00
 p           3
      6.001000000000e+00      5.416586334015e-02
      1.241000000000e+00      3.023798901809e-01
      3.364000000000e-01      7.712922165481e-01
 p           1
      9.538000000000e-02      1.000000000000e+00
 p           1
      2.378000000000e-02      1.000000000000e+00
 d           1
      3.430000000000e-01      1.000000000000e+00
 d           1
      9.040000000000e-02      1.000000000000e+00

6
 s           8
      6.665000000000e+03      6.915839628130e-04
      1.000000000000e+03      5.325796152934e-03
      2.280000000000e+02      2.706072104203e-02
      6.471000000000e+01      1.016568461408e-01
      2.106000000000e+01      2.745748236174e-01
      7.495000000000e+00      4.482943189238e-01
      2.797000000000e+00      2.849026107152e-01
      5.215000000000e-01      1.519485920608e-02
 s           8
      6.665000000000e+03     -2.932696526865e-04
      1.000000000000e+03     -2.318035473975e-03
      2.280000000000e+02     -1.149978603857e-02
      6.471000000000e+01     -4.682672700979e-02
      2.106000000000e+01     -1.284661687505e-01
      7.495000000000e+00     -3.012662724629e-01
      2.797000000000e+00     -2.556307023301e-01
      5.215000000000e-01      1.093793361012e+00
 s           1
      1.596000000000e-01      1.000000000000e+00
 s           1
      4.690000000000e-02      1.000000000000e+00
 p           3
      9.439000000000e+00      5.697925159004e-02
      2.002000000000e+00      3.132072115007e-01
      5.456000000000e-01      7.603767417375e-01
 p           1
      1.517000000000e-01      1.000000000000e+00
 p           1
      4.041000000000e-02      1.000000000000e+00
 d           1
      5.500000000000e-01      1.000000000000e+00
 d           1
      1.510000000000e-01      1.000000000000e+00

7
 s           8
      6.665000000000e+03      6.915839628130e-04
      1.000000000000e+03      5.325796152934e-03
      2.280000000000e+02      2.706072104203e-02
      6.471000000000e+01      1.016568461408e-01
      2.106000000000e+01      2.745748236174e-01
      7.495000000000e+00      4.482943189238e-01
      2.797000000000e+00      2.849026107152e-01
      5.215000000000e-01      1.519485920608e-02
 s           8
      6.665000000000e+03     -2.932696526865e-04
      1.000000000000e+03     -2.318035473975e-03
      2.280000000000e+02     -1.149978603857e-02
      6.471000000000e+01     -4.682672700979e-02
      2.106000000000e+01     -1.284661687505e-01
      7.495000000000e+00     -3.012662724629e-01
      2.797000000000e+00     -2.556307023301e-01
      5.215000000000e-01      1.093793361012e+00
 s           1
      1.596000000000e-01      1.000000000000e+00
 s           1
      4.690000000000e-02      1.000000000000e+00
 p           3
      9.439000000000e+00      5.697925159004e-02
      2.002000000000e+00      3.132072115007e-01
      5.456000000000e-01      7.603767417375e-01
 p           1
      1.517000000000e-01      1.000000000000e+00
 p           1
      4.041000000000e-02      1.000000000000e+00
 d           1
      5.500000000000e-01      1.000000000000e+00
 d           1
      1.510000000000e-01      1.000000000000e+00

8
 s           8
      6.665000000000e+03      6.915839628130e-04
      1.000000000000e+03      5.325796152934e-03
      2.280000000000e+02      2.706072104203e-02
      6.471000000000e+01      1.016568461408e-01
      2.106000000000e+01      2.745748236174e-01
      7.495000000000e+00      4.482943189238e-01
      2.797000000000e+00      2.849026107152e-01
      5.215000000000e-01      1.519485920608e-02
 s           8
      6.665000000000e+03     -2.932696526865e-04
      1.000000000000e+03     -2.318035473975e-03
      2.280000000000e+02     -1.149978603857e-02
      6.471000000000e+01     -4.682672700979e-02
      2.106000000000e+01     -1.284661687505e-01
      7.495000000000e+00     -3.012662724629e-01
      2.797000000000e+00     -2.556307023301e-01
      5.215000000000e-01      1.093793361012e+00
 s           1
      1.596000000000e-01      1.000000000000e+00
 s           1
      4.690000000000e-02      1.000000000000e+00
 p           3
      9.439000000000e+00      5.697925159004e-02
      2.002000000000e+00      3.132072115007e-01
      5.456000000000e-01      7.603767417375e-01
 p           1
      1.517000000000e-01      1.000000000000e+00
 p           1
      4.041000000000e-02      1.000000000000e+00
 d           1
      5.500000000000e-01      1.000000000000e+00
 d           1
      1.510000000000e-01      1.000000000000e+00

9
 s           8
      6.665000000000e+03      6.915839628130e-04
      1.000000000000e+03      5.325796152934e-03
      2.280000000000e+02      2.706072104203e-02
      6.471000000000e+01      1.016568461408e-01
      2.106000000000e+01      2.745748236174e-01
      7.495000000000e+00      4.482943189238e-01
      2.797000000000e+00      2.849026107152e-01
      5.215000000000e-01      1.519485920608e-02
 s           8
      6.665000000000e+03     -2.932696526865e-04
      1.000000000000e+03     -2.318035473975e-03
      2.280000000000e+02     -1.149978603857e-02
      6.471000000000e+01     -4.682672700979e-02
      2.106000000000e+01     -1.284661687505e-01
      7.495000000000e+00     -3.012662724629e-01
      2.797000000000e+00     -2.556307023301e-01
      5.215000000000e-01      1.093793361012e+00
 s           1
      1.596000000000e-01      1.000000000000e+00
 s           1
      4.690000000000e-02      1.000000000000e+00
 p           3
      9.439000000000e+00      5.697925159004e-02
      2.002000000000e+00      3.132072115007e-01
      5.456000000000e-01      7.603767417375e-01
 p           1
      1.517000000000e-01      1.000000000000e+00
 p           1
      4.041000000000e-02      1.000000000000e+00
 d           1
      5.500000000000e-01      1.000000000000e+00
 d           1
      1.510000000000e-01      1.000000000000e+00

10
 s           8
      6.665000000000e+03      6.915839628130e-04
      1.000000000000e+03      5.325796152934e-03
      2.280000000000e+02      2.706072104203e-02
      6.471000000000e+01      1.016568461408e-01
      2.106000000000e+01      2.745748236174e-01
      7.495000000000e+00      4.482943189238e-01
      2.797000000000e+00      2.849026107152e-01
      5.215000000000e-01      1.519485920608e-02
 s           8
      6.665000000000e+03     -2.932696526865e-04
      1.000000000000e+03     -2.318035473975e-03
      2.280000000000e+02     -1.149978603857e-02
      6.471000000000e+01     -4.682672700979e-02
      2.106000000000e+01     -1.284661687505e-01
      7.495000000000e+00     -3.012662724629e-01
      2.797000000000e+00     -2.556307023301e-01
      5.215000000000e-01      1.093793361012e+00
 s           1
      1.596000000000e-01      1.000000000000e+00
 s           1
      4.690000000000e-02      1.000000000000e+00
 p           3
      9.439000000000e+00      5.697925159004e-02
      2.002000000000e+00      3.132072115007e-01
      5.456000000000e-01      7.603767417375e-01
 p           1
      1.517000000000e-01      1.000000000000e+00
 p           1
      4.041000000000e-02      1.000000000000e+00
 d           1
      5.500000000000e-01      1.000000000000e+00
 d           1
      1.510000000000e-01      1.000000000000e+00

11
 s           3
      1.301000000000e+01      3.349872639000e-02
      1.962000000000e+00      2.348008011741e-01
      4.446000000000e-01      8.136829578829e-01
 s           1
      1.220000000000e-01      1.000000000000e+00
 s           1
      2.974000000000e-02      1.000000000000e+00
 p           1
      7.270000000000e-01      1.000000000000e+00
 p           1
      1.410000000000e-01      1.000000000000e+00

12
 s           3
      1.301000000000e+01      3.349872639000e-02
      1.962000000000e+00      2.348008011741e-01
      4.446000000000e-01      8.136829578829e-01
 s           1
      1.220000000000e-01      1.000000000000e+00
 s           1
      2.974000000000e-02      1.000000000000e+00
 p           1
      7.270000000000e-01      1.000000000000e+00
 p           1
      1.410000000000e-01      1.000000000000e+00

13
 s           3
      1.301000000000e+01      3.349872639000e-02
      1.962000000000e+00      2.348008011741e-01
      4.446000000000e-01      8.136829578829e-01
 s           1
      1.220000000000e-01      1.000000000000e+00
 s           1
      2.974000000000e-02      1.000000000000e+00
 p           1
      7.270000000000e-01      1.000000000000e+00
 p           1
      1.410000000000e-01      1.000000000000e+00

14
 s           3
      1.301000000000e+01      3.349872639000e-02
      1.962000000000e+00      2.348008011741e-01
      4.446000000000e-01      8.136829578829e-01
 s           1
      1.220000000000e-01      1.000000000000e+00
 s           1
      2.974000000000e-02      1.000000000000e+00
 p           1
      7.270000000000e-01      1.000000000000e+00
 p           1
      1.410000000000e-01      1.000000000000e+00

15
 s           3
      1.301000000000e+01      3.349872639000e-02
      1.962000000000e+00      2.348008011741e-01
      4.446000000000e-01      8.136829578829e-01
 s           1
      1.220000000000e-01      1.000000000000e+00
 s           1
      2.974000000000e-02      1.000000000000e+00
 p           1
      7.270000000000e-01      1.000000000000e+00
 p           1
      1.410000000000e-01      1.000000000000e+00

16
 s           3
      1.301000000000e+01      3.349872639000e-02
      1.962000000000e+00      2.348008011741e-01
      4.446000000000e-01      8.136829578829e-01
 s           1
      1.220000000000e-01      1.000000000000e+00
 s           1
      2.974000000000e-02      1.000000000000e+00
 p           1
      7.270000000000e-01      1.000000000000e+00
 p           1
      1.410000000000e-01      1.000000000000e+00

17
 s           3
      1.301000000000e+01      3.349872639000e-02
      1.962000000000e+00      2.348008011741e-01
      4.446000000000e-01      8.136829578829e-01
 s           1
      1.220000000000e-01      1.000000000000e+00
 s           1
      2.974000000000e-02      1.000000000000e+00
 p           1
      7.270000000000e-01      1.000000000000e+00
 p           1
      1.410000000000e-01      1.000000000000e+00

18
 s           3
      1.301000000000e+01      3.349872639000e-02
      1.962000000000e+00      2.348008011741e-01
      4.446000000000e-01      8.136829578829e-01
 s           1
      1.220000000000e-01      1.000000000000e+00
 s           1
      2.974000000000e-02      1.000000000000e+00
 p           1
      7.270000000000e-01      1.000000000000e+00
 p           1
      1.410000000000e-01      1.000000000000e+00


[5D]
[7F]
[9G]
[MO]
 Ene=  -15.629126
 Spin=  Alpha
 Occup=    2.000000
   1     0.0000832470247461
   2     0.0001480034161459
   3    -0.0055995183186268
   4    -0.0059458071818013
   5    -0.0000201968901124
   6    -0.0000080258691726
   7     0.0000126849676240
   8     0.0013600540494623
   9    -0.0055784321748288
  10    -0.0006365178502242
  11     0.0031179998795410
  12     0.0033817322378596
  13     0.0012432042729379
  14    -0.0000015794255219
  15     0.0000004901347534
  16    -0.0000133648394823
  17     0.0000213654560948
  18    -0.0000154046019000
  19     0.0002345475503332
  20     0.0003999368241236
  21     0.0001730062460729
  22     0.0004148324898636
  23     0.0012802509340970
  24     0.0000044832815053
  25     0.0000275485643112
  26    -0.0071311406649848
  27     0.0145662798509073
  28    -0.0001046045451544
  29     0.0000378453404563
  30    -0.0000184449503004
  31     0.0044193286437553
  32    -0.0083269442929675
  33     0.0007132524975064
  34    -0.0055912732311517
  35     0.0025048035257379
  36    -0.0012075561606891
  37     0.0000069242464365
  38     0.0000305179962449
  39    -0.0000174723896668
  40     0.0000912874253936
  41     0.0000062664803105
  42    -0.0006598435104326
  43    -0.0003891689970274
  44     0.0011352211950635
  45    -0.0025012586243333
  46     0.0016854521769223
  47    -0.0001910802245860
  48    -0.0002946685647246
  49    -0.0000078035310603
  50    -0.0284864443830055
  51     0.0002873300830879
  52     0.0001794065313950
  53     0.0001472831584718
  54     0.0128370851206483
  55     0.0032010211888948
  56     0.0038082958402578
  57    -0.0033446340971200
  58     0.0052544063573226
  59     0.0001051509220699
  60     0.0000903382446046
  61     0.0000582731682926
  62     0.0000111975808192
  63     0.0001179455546315
  64     0.0002066450178794
  65     0.0004741519078798
  66    -0.0013221208833888
  67    -0.0017729027608573
  68     0.0014408793709480
  69    -0.0055411923062413
  70    -1.0031092268192041
  71    -0.0054965770867688
  72     0.0278801120841036
  73     0.0205157327007484
  74    -0.0000710714422828
  75    -0.0008815668350581
  76     0.0002369773234644
  77     0.0002171574645847
  78     0.0052538681231839
  79    -0.0005332385942904
  80     0.0012984558735697
  81     0.0040208979825077
  82     0.0001962244032623
  83     0.0001399313541089
  84    -0.0001898030380737
  85     0.0000044070435156
  86    -0.0000005937741078
  87    -0.0000110125305480
  88    -0.0003965075679055
  89     0.0015016912670621
  90     0.0000951606941940
  91     0.0013895391315668
  92     0.0000567650882044
  93     0.0000457313278570
  94     0.0000328467947314
  95     0.0009615133995129
  96     0.0040128853989451
  97     0.0000279493345453
  98    -0.0001560446157078
  99     0.0000384295246329
 100    -0.0010488119631417
 101     0.0026183832107987
 102    -0.0002658572118286
 103     0.0001548527972964
 104     0.0012164624338171
 105     0.0001132739589549
 106     0.0000438764666920
 107    -0.0000699346345613
 108     0.0000234341811148
 109    -0.0001607621615293
 110    -0.0000057967808068
 111    -0.0002074636890068
 112     0.0000394491764336
 113     0.0003239821865147
 114    -0.0018742278652597
 115     0.0005747240313178
 116     0.0000104904203784
 117     0.0000397432722124
 118    -0.0006144912937959
 119     0.0093504942007236
 120    -0.0000351022318368
 121     0.0000536732409009
 122     0.0000042590966011
 123    -0.0015034398449142
 124    -0.0001258414872954
 125    -0.0002440310321296
 126     0.0026352289286487
 127     0.0016433749038231
 128     0.0006188226929203
 129    -0.0000392782568562
 130     0.0000059145390050
 131    -0.0000080826608652
 132    -0.0000266332747267
 133    -0.0000556121066420
 134     0.0001965859005803
 135    -0.0001330532377110
 136     0.0001481209435963
 137    -0.0006128198484722
 138     0.0000361184637551
 139    -0.0000111444948749
 140    -0.0000157422040369
 141    -0.0005650355919832
 142     0.0036648185895024
 143     0.0000099325828779
 144     0.0000281697765783
 145     0.0000059588212968
 146     0.0009597873629662
 147     0.0003845109032875
 148     0.0001049271559770
 149    -0.0002945796237591
 150     0.0005171984222684
 151     0.0003190516984541
 152    -0.0000294928472585
 153     0.0000103604539681
 154     0.0000255132104106
 155    -0.0000220524355455
 156     0.0000404932610610
 157    -0.0000493041003138
 158    -0.0000820258920779
 159    -0.0000322684699172
 160    -0.0008869919085696
 161    -0.0001444643197326
 162     0.0000743923732297
 163     0.0001347890751444
 164    -0.0037895261820402
 165     0.0002414191560308
 166     0.0000090858876016
 167     0.0000102113121558
 168     0.0000198002209434
 169    -0.0020938387592536
 170    -0.0044770503850851
 171    -0.0006246996667798
 172    -0.0010288636155527
 173     0.0016700574293279
 174    -0.0004614253586659
 175     0.0000036280813435
 176     0.0000056720638793
 177     0.0000209962928458
 178     0.0000250101487573
 179     0.0000131705556117
 180     0.0002161397515030
 181     0.0000668839212587
 182    -0.0004760571267856
 183     0.0001414647453036
 184    -0.0014714737007510
 185    -0.0000005028601438
 186     0.0000199887691065
 187    -0.0053578938501161
 188     0.0083136166885208
 189     0.0000927465256797
 190     0.0000299468321796
 191     0.0000377538331599
 192    -0.0020835960409959
 193    -0.0072547396212048
 194     0.0005648177528620
 195     0.0029801190960569
 196     0.0017988810798244
 197     0.0005959517318796
 198    -0.0000182757543141
 199     0.0000472689742299
 200     0.0000620920821379
 201     0.0000760755988165
 202     0.0000205918212063
 203    -0.0002385797749549
 204     0.0001633304644727
 205    -0.0012762504992728
 206    -0.0010508470768355
 207    -0.0020566059070251
 208    -0.0001599018581601
 209    -0.0002318527912659
 210    -0.0032974949357789
 211    -0.0195124804856303
 212    -0.0002888763910885
 213     0.0001902084313081
 214    -0.0001209368834600
 215    -0.0111621625040966
 216     0.0042363237285520
 217    -0.0041920773160677
 218     0.0019354386162248
 219     0.0029234096911753
 220    -0.0016854161165550
 221     0.0000447643445379
 222     0.0001291754339553
 223     0.0000767818043613
 224     0.0000258552509430
 225    -0.0002149069669710
 226    -0.0001116938670665
 227    -0.0022061555525777
 228     0.0019682857671455
 229     0.0021262251852604
 230     0.0036755947322540
 231     0.0000015204039497
 232    -0.0010492128514379
 233    -0.0004177572941807
 234     0.0000021707827697
 235     0.0000085710684211
 236    -0.0000043347602041
 237     0.0002684335664430
 238    -0.0003809719859914
 239    -0.0000856987135400
 240    -0.0000009737243799
 241     0.0014625547664008
 242     0.0009159228161021
 243    -0.0000357751192744
 244    -0.0000127269157760
 245    -0.0000186075914161
 246    -0.0006152172994935
 247    -0.0006165989026935
 248    -0.0002831937619928
 249     0.0002970476115435
 250    -0.0004173552157947
 251    -0.0023189427314122
 252    -0.0000294414618456
 253    -0.0001681408821801
 254    -0.0000587250858238
 255     0.0015360667796970
 256     0.0004070430264013
 257     0.0004148543577348
 258    -0.0000216356979095
 259    -0.0007348547706151
 260     0.0011413993602598
 261     0.0000045923360190
 262    -0.0000220601727481
 263     0.0000030499378748
 264     0.0003039027120416
 265    -0.0000418869841859
 266     0.0000511041790225
 267    -0.0000181183130991
 268    -0.0014158024066506
 269     0.0009698552481633
 270     0.0000077777410099
 271    -0.0000053626890240
 272    -0.0000028856031500
 273    -0.0004212427289343
 274    -0.0002036260074151
 275    -0.0002430442567293
 276    -0.0000063885572255
 277    -0.0013120450717297
 278     0.0001576471678076
 279    -0.0000112449206734
 280     0.0000006250312943
 281     0.0000052842058443
 282    -0.0003411424668969
 283    -0.0004664740435842
 284    -0.0000327185024803
 285     0.0000090364191520
 286     0.0012297813060979
 287     0.0002663287889767
 288     0.0000530863251693
 289    -0.0000048773880322
 290     0.0000242865514374
 291     0.0007255788747667
 292    -0.0003473146251976
 293     0.0003172998723749
 294     0.0002922010500034
 295     0.0003858321778750
 296    -0.0015074905342184
 297     0.0000058564521842
 298    -0.0001325746817372
 299     0.0001353400164272
 300    -0.0012026716062891
 301     0.0002577957204390
 302     0.0001004259241263
 Ene=  -11.290044
 Spin=  Alpha
 Occup=    2.000000
   1     0.0000346215349350
   2     0.0000579222161565
   3    -0.0033358875202434
   4    -0.0014336412287658
   5    -0.0000001758736425
   6    -0.0000038692946031
   7    -0.0000000181808991
   8     0.0010283991487924
   9     0.0022054587686287
  10     0.0000472474524854
  11    -0.0024938443390536
  12    -0.0044547017442986
  13    -0.0011647577526788
  14    -0.0000156080754572
  15     0.0000065148185898
  16    -0.0000265675701248
  17     0.0000207648506385
  18    -0.0000326791000631
  19     0.0002919739562681
  20     0.0000700665266645
  21     0.0000844520693342
  22    -0.0005908769695364
  23    -0.0011050621198324
  24     0.0001208186227542
  25     0.0001741093755306
  26    -0.0002955634136735
  27    -0.0088524170773554
  28    -0.0000639624291492
  29     0.0000303836694443
  30    -0.0000238271385241
  31     0.0004364848793828
  32     0.0009442254992219
  33     0.0019982687626572
  34     0.0043800446063658
  35    -0.0056921605594754
  36     0.0001681555256334
  37    -0.0000124122841860
  38    -0.0000379325594578
  39     0.0000184793535091
  40    -0.0000036268239005
  41     0.0000118086249845
  42    -0.0002180854885568
  43    -0.0012420250741317
  44     0.0002792029884924
  45    -0.0002483094632173
  46    -0.0006902298469561
  47     0.0019792436257108
  48     0.0004732907476707
  49     0.0028222991121239
  50     0.0164844991577881
  51    -0.0001466019141847
  52    -0.0000715117272277
  53     0.0000138200530491
  54    -0.0006528336940099
  55    -0.0003712683351962
  56    -0.0010602081607153
  57     0.0076241624340955
  58    -0.0022590133101447
  59     0.0020930600277359
  60     0.0000864274160756
  61    -0.0000893373666616
  62    -0.0000149552741549
  63     0.0000054012331185
  64    -0.0000030061150786
  65    -0.0004219108273605
  66    -0.0017014672089266
  67     0.0012419997391826
  68    -0.0005095808806384
  69     0.0003917347889452
  70    -0.0001880976697168
  71    -0.0007277626036805
  72     0.0036373285570847
  73    -0.0064766626146109
  74     0.0002274397228650
  75    -0.0001886070785757
  76     0.0003830136096834
  77    -0.0032442263835332
  78     0.0019639313938763
  79    -0.0015584031615128
  80    -0.0053206307023030
  81     0.0035620175065899
  82    -0.0016367945453570
  83    -0.0000727591677696
  84     0.0001151931575268
  85    -0.0000611883682452
  86    -0.0000046174282855
  87     0.0000034159844761
  88    -0.0001183138646586
  89     0.0006389449815789
  90    -0.0009359095521101
  91     0.0003206397735173
  92    -0.0019905315437259
  93     0.0003117285025251
  94     0.0005069032924648
  95     0.0006820286566881
  96    -0.0048313096221639
  97    -0.0000419563772866