[Molden Format]
[Atoms] Angs
 c       1                    6  2.389611414137e+00 -5.678054683434e-01  6.949770558793e-01
 c       2                    6  2.210054117391e+00  8.530172180497e-01  8.989543257049e-01
 c       3                    6  9.778780630311e-01  1.451140643652e+00  6.804748209436e-01
 n       4                    7 -1.076228137507e-01  6.418471989151e-01  4.173687489253e-01
 b       5                    5 -4.239855134541e-02 -8.071777176585e-01  3.557073220269e-01
 c       6                    6  1.330557890932e+00 -1.445299027128e+00  4.640672873633e-01
 c       7                    6 -1.289535947560e+00 -1.067368220565e+00 -6.084956168625e-01
 c       8                    6 -2.714509728524e+00 -5.787288149833e-01 -4.505215949763e-01
 c       9                    6 -2.457068533132e+00  7.644490813780e-01 -5.744910172842e-01
 c      10                    6 -9.830852368030e-01  5.670638257741e-01 -7.957996028346e-01
 h      11                    1  3.423995506714e+00 -9.410458178985e-01  6.815597132590e-01
 h      12                    1  3.076798698749e+00  1.480361083340e+00  1.122960212124e+00
 h      13                    1  8.352388300613e-01  2.539820804112e+00  7.223637479869e-01
 h      14                    1  1.552458093269e+00 -2.486627575610e+00  2.058545721186e-01
 h      15                    1 -1.075564878722e+00 -1.819446484675e+00 -1.381142489251e+00
 h      16                    1 -3.647021181438e+00 -1.144784648375e+00 -3.342908096670e-01
 h      17                    1 -3.026305780603e+00  1.682440998573e+00 -3.937089298018e-01
 h      18                    1 -4.534799624061e-01  8.781429214421e-01 -1.705837745654e+00
[GTO]
1
 s           8
      6.665000000000e+03      6.915839628130e-04
      1.000000000000e+03      5.325796152934e-03
      2.280000000000e+02      2.706072104203e-02
      6.471000000000e+01      1.016568461408e-01
      2.106000000000e+01      2.745748236174e-01
      7.495000000000e+00      4.482943189238e-01
      2.797000000000e+00      2.849026107152e-01
      5.215000000000e-01      1.519485920608e-02
 s           8
      6.665000000000e+03     -2.932696526865e-04
      1.000000000000e+03     -2.318035473975e-03
      2.280000000000e+02     -1.149978603857e-02
      6.471000000000e+01     -4.682672700979e-02
      2.106000000000e+01     -1.284661687505e-01
      7.495000000000e+00     -3.012662724629e-01
      2.797000000000e+00     -2.556307023301e-01
      5.215000000000e-01      1.093793361012e+00
 s           1
      1.596000000000e-01      1.000000000000e+00
 s           1
      4.690000000000e-02      1.000000000000e+00
 p           3
      9.439000000000e+00      5.697925159004e-02
      2.002000000000e+00      3.132072115007e-01
      5.456000000000e-01      7.603767417375e-01
 p           1
      1.517000000000e-01      1.000000000000e+00
 p           1
      4.041000000000e-02      1.000000000000e+00
 d           1
      5.500000000000e-01      1.000000000000e+00
 d           1
      1.510000000000e-01      1.000000000000e+00

2
 s           8
      6.665000000000e+03      6.915839628130e-04
      1.000000000000e+03      5.325796152934e-03
      2.280000000000e+02      2.706072104203e-02
      6.471000000000e+01      1.016568461408e-01
      2.106000000000e+01      2.745748236174e-01
      7.495000000000e+00      4.482943189238e-01
      2.797000000000e+00      2.849026107152e-01
      5.215000000000e-01      1.519485920608e-02
 s           8
      6.665000000000e+03     -2.932696526865e-04
      1.000000000000e+03     -2.318035473975e-03
      2.280000000000e+02     -1.149978603857e-02
      6.471000000000e+01     -4.682672700979e-02
      2.106000000000e+01     -1.284661687505e-01
      7.495000000000e+00     -3.012662724629e-01
      2.797000000000e+00     -2.556307023301e-01
      5.215000000000e-01      1.093793361012e+00
 s           1
      1.596000000000e-01      1.000000000000e+00
 s           1
      4.690000000000e-02      1.000000000000e+00
 p           3
      9.439000000000e+00      5.697925159004e-02
      2.002000000000e+00      3.132072115007e-01
      5.456000000000e-01      7.603767417375e-01
 p           1
      1.517000000000e-01      1.000000000000e+00
 p           1
      4.041000000000e-02      1.000000000000e+00
 d           1
      5.500000000000e-01      1.000000000000e+00
 d           1
      1.510000000000e-01      1.000000000000e+00

3
 s           8
      6.665000000000e+03      6.915839628130e-04
      1.000000000000e+03      5.325796152934e-03
      2.280000000000e+02      2.706072104203e-02
      6.471000000000e+01      1.016568461408e-01
      2.106000000000e+01      2.745748236174e-01
      7.495000000000e+00      4.482943189238e-01
      2.797000000000e+00      2.849026107152e-01
      5.215000000000e-01      1.519485920608e-02
 s           8
      6.665000000000e+03     -2.932696526865e-04
      1.000000000000e+03     -2.318035473975e-03
      2.280000000000e+02     -1.149978603857e-02
      6.471000000000e+01     -4.682672700979e-02
      2.106000000000e+01     -1.284661687505e-01
      7.495000000000e+00     -3.012662724629e-01
      2.797000000000e+00     -2.556307023301e-01
      5.215000000000e-01      1.093793361012e+00
 s           1
      1.596000000000e-01      1.000000000000e+00
 s           1
      4.690000000000e-02      1.000000000000e+00
 p           3
      9.439000000000e+00      5.697925159004e-02
      2.002000000000e+00      3.132072115007e-01
      5.456000000000e-01      7.603767417375e-01
 p           1
      1.517000000000e-01      1.000000000000e+00
 p           1
      4.041000000000e-02      1.000000000000e+00
 d           1
      5.500000000000e-01      1.000000000000e+00
 d           1
      1.510000000000e-01      1.000000000000e+00

4
 s           8
      9.046000000000e+03      6.996174134255e-04
      1.357000000000e+03      5.386054629929e-03
      3.093000000000e+02      2.739102118906e-02
      8.773000000000e+01      1.031505919820e-01
      2.856000000000e+01      2.785706633174e-01
      1.021000000000e+01      4.482948494541e-01
      3.838000000000e+00      2.780859283953e-01
      7.466000000000e-01      1.543156123327e-02
 s           8
      9.046000000000e+03     -3.049900959534e-04
      1.357000000000e+03     -2.408026378508e-03
      3.093000000000e+02     -1.194444872518e-02
      8.773000000000e+01     -4.892599290902e-02
      2.856000000000e+01     -1.344727247250e-01
      1.021000000000e+01     -3.151125777001e-01
      3.838000000000e+00     -2.428578325496e-01
      7.466000000000e-01      1.094382206854e+00
 s           1
      2.248000000000e-01      1.000000000000e+00
 s           1
      6.124000000000e-02      1.000000000000e+00
 p           3
      1.355000000000e+01      5.890567677213e-02
      2.917000000000e+00      3.204611067143e-01
      7.973000000000e-01      7.530420617921e-01
 p           1
      2.185000000000e-01      1.000000000000e+00
 p           1
      5.611000000000e-02      1.000000000000e+00
 d           1
      8.170000000000e-01      1.000000000000e+00
 d           1
      2.300000000000e-01      1.000000000000e+00

5
 s           8
      4.570000000000e+03      6.955544180306e-04
      6.859000000000e+02      5.349572988100e-03
      1.565000000000e+02      2.711662870523e-02
      4.447000000000e+01      1.013150961206e-01
      1.448000000000e+01      2.718808293065e-01
      5.131000000000e+00      4.481159306152e-01
      1.898000000000e+00      2.899372621010e-01
      3.329000000000e-01      1.431283099861e-02
 s           8
      4.570000000000e+03     -2.812802240142e-04
      6.859000000000e+02     -2.219887811105e-03
      1.565000000000e+02     -1.101647150743e-02
      4.447000000000e+01     -4.434918985248e-02
      1.448000000000e+01     -1.209120479502e-01
      5.131000000000e+00     -2.807378995535e-01
      1.898000000000e+00     -2.660668087326e-01
      3.329000000000e-01      1.091784130514e+00
 s           1
      1.043000000000e-01      1.000000000000e+00
 s           1
      3.105000000000e-02      1.000000000000e+00
 p           3
      6.001000000000e+00      5.416586334015e-02
      1.241000000000e+00      3.023798901809e-01
      3.364000000000e-01      7.712922165481e-01
 p           1
      9.538000000000e-02      1.000000000000e+00
 p           1
      2.378000000000e-02      1.000000000000e+00
 d           1
      3.430000000000e-01      1.000000000000e+00
 d           1
      9.040000000000e-02      1.000000000000e+00

6
 s           8
      6.665000000000e+03      6.915839628130e-04
      1.000000000000e+03      5.325796152934e-03
      2.280000000000e+02      2.706072104203e-02
      6.471000000000e+01      1.016568461408e-01
      2.106000000000e+01      2.745748236174e-01
      7.495000000000e+00      4.482943189238e-01
      2.797000000000e+00      2.849026107152e-01
      5.215000000000e-01      1.519485920608e-02
 s           8
      6.665000000000e+03     -2.932696526865e-04
      1.000000000000e+03     -2.318035473975e-03
      2.280000000000e+02     -1.149978603857e-02
      6.471000000000e+01     -4.682672700979e-02
      2.106000000000e+01     -1.284661687505e-01
      7.495000000000e+00     -3.012662724629e-01
      2.797000000000e+00     -2.556307023301e-01
      5.215000000000e-01      1.093793361012e+00
 s           1
      1.596000000000e-01      1.000000000000e+00
 s           1
      4.690000000000e-02      1.000000000000e+00
 p           3
      9.439000000000e+00      5.697925159004e-02
      2.002000000000e+00      3.132072115007e-01
      5.456000000000e-01      7.603767417375e-01
 p           1
      1.517000000000e-01      1.000000000000e+00
 p           1
      4.041000000000e-02      1.000000000000e+00
 d           1
      5.500000000000e-01      1.000000000000e+00
 d           1
      1.510000000000e-01      1.000000000000e+00

7
 s           8
      6.665000000000e+03      6.915839628130e-04
      1.000000000000e+03      5.325796152934e-03
      2.280000000000e+02      2.706072104203e-02
      6.471000000000e+01      1.016568461408e-01
      2.106000000000e+01      2.745748236174e-01
      7.495000000000e+00      4.482943189238e-01
      2.797000000000e+00      2.849026107152e-01
      5.215000000000e-01      1.519485920608e-02
 s           8
      6.665000000000e+03     -2.932696526865e-04
      1.000000000000e+03     -2.318035473975e-03
      2.280000000000e+02     -1.149978603857e-02
      6.471000000000e+01     -4.682672700979e-02
      2.106000000000e+01     -1.284661687505e-01
      7.495000000000e+00     -3.012662724629e-01
      2.797000000000e+00     -2.556307023301e-01
      5.215000000000e-01      1.093793361012e+00
 s           1
      1.596000000000e-01      1.000000000000e+00
 s           1
      4.690000000000e-02      1.000000000000e+00
 p           3
      9.439000000000e+00      5.697925159004e-02
      2.002000000000e+00      3.132072115007e-01
      5.456000000000e-01      7.603767417375e-01
 p           1
      1.517000000000e-01      1.000000000000e+00
 p           1
      4.041000000000e-02      1.000000000000e+00
 d           1
      5.500000000000e-01      1.000000000000e+00
 d           1
      1.510000000000e-01      1.000000000000e+00

8
 s           8
      6.665000000000e+03      6.915839628130e-04
      1.000000000000e+03      5.325796152934e-03
      2.280000000000e+02      2.706072104203e-02
      6.471000000000e+01      1.016568461408e-01
      2.106000000000e+01      2.745748236174e-01
      7.495000000000e+00      4.482943189238e-01
      2.797000000000e+00      2.849026107152e-01
      5.215000000000e-01      1.519485920608e-02
 s           8
      6.665000000000e+03     -2.932696526865e-04
      1.000000000000e+03     -2.318035473975e-03
      2.280000000000e+02     -1.149978603857e-02
      6.471000000000e+01     -4.682672700979e-02
      2.106000000000e+01     -1.284661687505e-01
      7.495000000000e+00     -3.012662724629e-01
      2.797000000000e+00     -2.556307023301e-01
      5.215000000000e-01      1.093793361012e+00
 s           1
      1.596000000000e-01      1.000000000000e+00
 s           1
      4.690000000000e-02      1.000000000000e+00
 p           3
      9.439000000000e+00      5.697925159004e-02
      2.002000000000e+00      3.132072115007e-01
      5.456000000000e-01      7.603767417375e-01
 p           1
      1.517000000000e-01      1.000000000000e+00
 p           1
      4.041000000000e-02      1.000000000000e+00
 d           1
      5.500000000000e-01      1.000000000000e+00
 d           1
      1.510000000000e-01      1.000000000000e+00

9
 s           8
      6.665000000000e+03      6.915839628130e-04
      1.000000000000e+03      5.325796152934e-03
      2.280000000000e+02      2.706072104203e-02
      6.471000000000e+01      1.016568461408e-01
      2.106000000000e+01      2.745748236174e-01
      7.495000000000e+00      4.482943189238e-01
      2.797000000000e+00      2.849026107152e-01
      5.215000000000e-01      1.519485920608e-02
 s           8
      6.665000000000e+03     -2.932696526865e-04
      1.000000000000e+03     -2.318035473975e-03
      2.280000000000e+02     -1.149978603857e-02
      6.471000000000e+01     -4.682672700979e-02
      2.106000000000e+01     -1.284661687505e-01
      7.495000000000e+00     -3.012662724629e-01
      2.797000000000e+00     -2.556307023301e-01
      5.215000000000e-01      1.093793361012e+00
 s           1
      1.596000000000e-01      1.000000000000e+00
 s           1
      4.690000000000e-02      1.000000000000e+00
 p           3
      9.439000000000e+00      5.697925159004e-02
      2.002000000000e+00      3.132072115007e-01
      5.456000000000e-01      7.603767417375e-01
 p           1
      1.517000000000e-01      1.000000000000e+00
 p           1
      4.041000000000e-02      1.000000000000e+00
 d           1
      5.500000000000e-01      1.000000000000e+00
 d           1
      1.510000000000e-01      1.000000000000e+00

10
 s           8
      6.665000000000e+03      6.915839628130e-04
      1.000000000000e+03      5.325796152934e-03
      2.280000000000e+02      2.706072104203e-02
      6.471000000000e+01      1.016568461408e-01
      2.106000000000e+01      2.745748236174e-01
      7.495000000000e+00      4.482943189238e-01
      2.797000000000e+00      2.849026107152e-01
      5.215000000000e-01      1.519485920608e-02
 s           8
      6.665000000000e+03     -2.932696526865e-04
      1.000000000000e+03     -2.318035473975e-03
      2.280000000000e+02     -1.149978603857e-02
      6.471000000000e+01     -4.682672700979e-02
      2.106000000000e+01     -1.284661687505e-01
      7.495000000000e+00     -3.012662724629e-01
      2.797000000000e+00     -2.556307023301e-01
      5.215000000000e-01      1.093793361012e+00
 s           1
      1.596000000000e-01      1.000000000000e+00
 s           1
      4.690000000000e-02      1.000000000000e+00
 p           3
      9.439000000000e+00      5.697925159004e-02
      2.002000000000e+00      3.132072115007e-01
      5.456000000000e-01      7.603767417375e-01
 p           1
      1.517000000000e-01      1.000000000000e+00
 p           1
      4.041000000000e-02      1.000000000000e+00
 d           1
      5.500000000000e-01      1.000000000000e+00
 d           1
      1.510000000000e-01      1.000000000000e+00

11
 s           3
      1.301000000000e+01      3.349872639000e-02
      1.962000000000e+00      2.348008011741e-01
      4.446000000000e-01      8.136829578829e-01
 s           1
      1.220000000000e-01      1.000000000000e+00
 s           1
      2.974000000000e-02      1.000000000000e+00
 p           1
      7.270000000000e-01      1.000000000000e+00
 p           1
      1.410000000000e-01      1.000000000000e+00

12
 s           3
      1.301000000000e+01      3.349872639000e-02
      1.962000000000e+00      2.348008011741e-01
      4.446000000000e-01      8.136829578829e-01
 s           1
      1.220000000000e-01      1.000000000000e+00
 s           1
      2.974000000000e-02      1.000000000000e+00
 p           1
      7.270000000000e-01      1.000000000000e+00
 p           1
      1.410000000000e-01      1.000000000000e+00

13
 s           3
      1.301000000000e+01      3.349872639000e-02
      1.962000000000e+00      2.348008011741e-01
      4.446000000000e-01      8.136829578829e-01
 s           1
      1.220000000000e-01      1.000000000000e+00
 s           1
      2.974000000000e-02      1.000000000000e+00
 p           1
      7.270000000000e-01      1.000000000000e+00
 p           1
      1.410000000000e-01      1.000000000000e+00

14
 s           3
      1.301000000000e+01      3.349872639000e-02
      1.962000000000e+00      2.348008011741e-01
      4.446000000000e-01      8.136829578829e-01
 s           1
      1.220000000000e-01      1.000000000000e+00
 s           1
      2.974000000000e-02      1.000000000000e+00
 p           1
      7.270000000000e-01      1.000000000000e+00
 p           1
      1.410000000000e-01      1.000000000000e+00

15
 s           3
      1.301000000000e+01      3.349872639000e-02
      1.962000000000e+00      2.348008011741e-01
      4.446000000000e-01      8.136829578829e-01
 s           1
      1.220000000000e-01      1.000000000000e+00
 s           1
      2.974000000000e-02      1.000000000000e+00
 p           1
      7.270000000000e-01      1.000000000000e+00
 p           1
      1.410000000000e-01      1.000000000000e+00

16
 s           3
      1.301000000000e+01      3.349872639000e-02
      1.962000000000e+00      2.348008011741e-01
      4.446000000000e-01      8.136829578829e-01
 s           1
      1.220000000000e-01      1.000000000000e+00
 s           1
      2.974000000000e-02      1.000000000000e+00
 p           1
      7.270000000000e-01      1.000000000000e+00
 p           1
      1.410000000000e-01      1.000000000000e+00

17
 s           3
      1.301000000000e+01      3.349872639000e-02
      1.962000000000e+00      2.348008011741e-01
      4.446000000000e-01      8.136829578829e-01
 s           1
      1.220000000000e-01      1.000000000000e+00
 s           1
      2.974000000000e-02      1.000000000000e+00
 p           1
      7.270000000000e-01      1.000000000000e+00
 p           1
      1.410000000000e-01      1.000000000000e+00

18
 s           3
      1.301000000000e+01      3.349872639000e-02
      1.962000000000e+00      2.348008011741e-01
      4.446000000000e-01      8.136829578829e-01
 s           1
      1.220000000000e-01      1.000000000000e+00
 s           1
      2.974000000000e-02      1.000000000000e+00
 p           1
      7.270000000000e-01      1.000000000000e+00
 p           1
      1.410000000000e-01      1.000000000000e+00


[5D]
[7F]
[9G]
[MO]
 Ene=  -15.587659
 Spin=  Alpha
 Occup=    2.000000
   1    -0.0000613358391669
   2    -0.0001148516639595
   3     0.0042659373157839
   4     0.0079391942018905
   5     0.0000099803373546
   6    -0.0000039773762080
   7    -0.0000030103969771
   8    -0.0010192199961515
   9     0.0067166192624030
  10     0.0009915957570874
  11    -0.0036389944538754
  12    -0.0034672662952237
  13    -0.0011067616880743
  14     0.0000040799461635
  15     0.0000025388207007
  16     0.0000042165065811
  17    -0.0000277809299971
  18     0.0000213747798116
  19    -0.0000171572975587
  20    -0.0004800875690452
  21    -0.0001298153678254
  22    -0.0001769335045438
  23    -0.0022906219537664
  24    -0.0000030745889969
  25    -0.0000324924899457
  26     0.0070697736613185
  27    -0.0127083112688365
  28     0.0001142114715027
  29    -0.0000343048068694
  30    -0.0000175917222800
  31    -0.0041744928496617
  32     0.0090680274225112
  33    -0.0001539418288087
  34     0.0050407289912823
  35    -0.0019843234226354
  36     0.0007926538492206
  37    -0.0000155184377791
  38    -0.0000179407280841
  39    -0.0000029067705197
  40    -0.0000904159531852
  41     0.0000059070033613
  42     0.0005301939009920
  43    -0.0000435990182298
  44    -0.0009228022028095
  45     0.0023533135034386
  46    -0.0026063557519663
  47     0.0002499884289188
  48     0.0003844951897122
  49     0.0001115138188861
  50     0.0268118631615838
  51    -0.0002845496753754
  52    -0.0001965406384274
  53    -0.0001241433299076
  54    -0.0137750113185715
  55    -0.0043858296050877
  56    -0.0029122232656696
  57     0.0022142869555046
  58    -0.0050879046636246
  59     0.0000389452551604
  60    -0.0000415075641011
  61    -0.0000647876588223
  62    -0.0000563423284407
  63    -0.0001037232084295
  64    -0.0002146396869162
  65    -0.0008611236168563
  66     0.0002121518912055
  67     0.0012938007927376
  68    -0.0020521147997079
  69     0.0055835821258252
  70     1.0031795756350890
  71     0.0055653772815627
  72    -0.0275852829733689
  73    -0.0168293728373927
  74     0.0005761685560644
  75     0.0002957151238593
  76    -0.0008000970937877
  77    -0.0013880391693999
  78    -0.0018302791937284
  79     0.0031971791162250
  80    -0.0046793881114016
  81    -0.0016506507440880
  82    -0.0003036122580276
  83    -0.0001308001072119
  84     0.0000783857152788
  85     0.0001057016124362
  86    -0.0000200885085257
  87     0.0001393369233162
  88    -0.0000859891065533
  89    -0.0018379072898044
  90    -0.0008866310142133
  91    -0.0010679236543241
  92    -0.0015303874757240
  93     0.0003125587105968
  94     0.0005641206473062
  95     0.0021557131888405
  96    -0.0032623667822167
  97    -0.0000550093427453
  98     0.0003435098382173
  99    -0.0000893184259837
 100     0.0014107704873791
 101    -0.0015315438071651
 102    -0.0006498855681665
 103    -0.0008444026309747
 104    -0.0002692713118376
 105    -0.0002093713093180
 106    -0.0001432688082493
 107    -0.0000017611874813
 108    -0.0000443261398641
 109     0.0001039464507771
 110    -0.0000370105525413
 111     0.0005872832578667
 112     0.0001800344702994
 113    -0.0002431941245656
 114     0.0011178913050463
 115    -0.0005803700076183
 116     0.0000102788290713
 117    -0.0000110680984388
 118     0.0024889000663632
 119    -0.0101912343962709
 120     0.0000369619011927
 121    -0.0000421067861995
 122    -0.0000063102751050
 123     0.0032785217744427
 124     0.0004982990579160
 125     0.0004361283974713
 126    -0.0025280665123941
 127    -0.0014212699819293
 128    -0.0002822187812625
 129     0.0000638332556987
 130    -0.0000046349056221
 131     0.0000040684767664
 132     0.0000116180614536
 133     0.0000737551745689
 134    -0.0001515297598176
 135     0.0000876300400689
 136    -0.0000100449140125
 137     0.0010125233013632
 138     0.0005819221769108
 139     0.0000645701834683
 140     0.0001032690743107
 141    -0.0023021021876690
 142     0.0024615572224833
 143    -0.0000478165021958
 144    -0.0000771992451725
 145     0.0000134731793328
 146    -0.0019032664769857
 147    -0.0027649478644232
 148    -0.0017059604811764
 149     0.0008513403463293
 150     0.0005486049166409
 151    -0.0002204236045841
 152     0.0000141375585841
 153     0.0000238638766305
 154    -0.0000289065318526
 155     0.0000669410176874
 156    -0.0000428663175019
 157     0.0003723811654190
 158    -0.0004386626633794
 159    -0.0005922138683307
 160     0.0003815201381632
 161    -0.0008043091742718
 162     0.0000856416171221
 163     0.0001398151646823
 164    -0.0023400881353954
 165    -0.0016019195893902
 166     0.0000525776895968
 167    -0.0000274450911613
 168     0.0000049088977891
 169    -0.0002536326887215
 170    -0.0004826368788671
 171     0.0004300820204407
 172    -0.0006226774975138
 173    -0.0008746583232610
 174    -0.0000952811914442
 175     0.0000617171107742
 176    -0.0000275686926343
 177    -0.0000274416739995
 178    -0.0000030119036403
 179    -0.0000164169927538
 180    -0.0000467005113427
 181     0.0000664141908808
 182     0.0002838427798696
 183     0.0001917930402898
 184     0.0002831723148475
 185     0.0000566291145168
 186     0.0000817625047026
 187     0.0034929662013127
 188    -0.0009567467753889
 189     0.0000043070784148
 190     0.0000047085238698
 191    -0.0000314325669195
 192     0.0001631868503761
 193    -0.0011564748863794
 194    -0.0008194335257309
 195    -0.0008263193976348
 196    -0.0000609250974396
 197     0.0000584794245855
 198     0.0000812827467904
 199    -0.0000898938121916
 200     0.0000016761697740
 201    -0.0001282236583201
 202     0.0000763159533916
 203    -0.0003494604435004
 204    -0.0001953102339651
 205     0.0003464692563188
 206    -0.0005502734250535
 207     0.0003385577516463
 208    -0.0002098258526552
 209    -0.0003135042873597
 210     0.0097126666069371
 211     0.0012810653419574
 212     0.0002296992498312
 213     0.0001224820724598
 214     0.0003239226082650
 215     0.0050837912069895
 216    -0.0029863200239890
 217     0.0087455771923930
 218    -0.0011954705700549
 219     0.0006740710955837
 220     0.0009204375446312
 221     0.0000206485559675
 222     0.0000340235497670
 223    -0.0000038883225940
 224     0.0001957254119454
 225     0.0000648693498188
 226     0.0026836494556409
 227     0.0029337813650053
 228    -0.0016088571815337
 229    -0.0015359419695716
 230    -0.0004052558801490
 231     0.0000176869185506
 232    -0.0002897109577468
 233     0.0007482872695583
 234    -0.0000177533475467
 235    -0.0000008246597024
 236     0.0000044213272754
 237     0.0001413930772591
 238     0.0003748417732543
 239     0.0001587202339865
 240     0.0000218955734637
 241    -0.0006380210584162
 242    -0.0006012400277379
 243     0.0000516035450969
 244     0.0000180277434794
 245     0.0000243891519058
 246     0.0004684018866743
 247     0.0005276736275863
 248     0.0002432385558224
 249    -0.0002538751688858
 250     0.0001467446190578
 251     0.0018887709301249
 252     0.0000442025948248
 253     0.0001454737037378
 254     0.0000294748446565
 255    -0.0014015954319915
 256    -0.0004864950716236
 257    -0.0003505989865304
 258     0.0000519081220917
 259     0.0011313817312605
 260    -0.0003913479381183
 261    -0.0000131426109152
 262     0.0000041600923407
 263     0.0000072299274254
 264    -0.0002234909113969
 265     0.0000287325770082
 266     0.0001420451321154
 267     0.0000057156465580
 268    -0.0019210005685000
 269    -0.0001922096650905
 270     0.0000157299038089
 271     0.0000254654763418
 272     0.0000286426180658
 273    -0.0001402253700595
 274    -0.0004780142711796
 275    -0.0002624188653574
 276     0.0000177086330363
 277    -0.0002433973589779
 278    -0.0005740767704325
 279     0.0000240365445477
 280     0.0000124278062675
 281    -0.0000141402961560
 282     0.0000146123534839
 283     0.0000156127529528
 284     0.0000761094179310
 285    -0.0000397091946975
 286     0.0007427724279200
 287    -0.0003911174512499
 288     0.0000080744665762
 289    -0.0000270523272323
 290    -0.0000144334413259
 291     0.0001425469870678
 292    -0.0003933256945896
 293    -0.0000917224724753
 294    -0.0001752433623603
 295     0.0027871605616936
 296     0.0005130235398669
 297     0.0000214236284426
 298     0.0000092663529966
 299    -0.0001701423843512
 300     0.0008465028008614
 301    -0.0004987089602145
 302     0.0007828270260347
 Ene=  -11.300249
 Spin=  Alpha
 Occup=    2.000000
   1     0.0000333537648658
   2     0.0000545701767668
   3    -0.0037806058205072
   4    -0.0020061496081977
   5     0.0000243908385494
   6    -0.0000036712970560
   7    -0.0000003234102109
   8    -0.0006761509632267
   9    -0.0041973125642853
  10    -0.0005256269859562
  11    -0.0002508708854738
  12    -0.0010593192556895
  13    -0.0003746546765908
  14     0.0000159025279842
  15    -0.0000205054498243
  16    -0.0000147325046861
  17    -0.0000076053448957
  18     0.0000338328520294
  19    -0.0000677704753093
  20     0.0002722543829737
  21    -0.0002798227162916
  22     0.0010940528618224
  23     0.0008185028444676
  24    -0.0000239834203485
  25    -0.0000348240687497
  26    -0.0069287417905821
  27    -0.0013542809956427
  28     0.0001017284953139
  29    -0.0000282077935634
  30     0.0000424007522536
  31     0.0068573725520886
  32    -0.0057983313947935
  33     0.0010613112521222
  34     0.0012524156658246
  35    -0.0014786918356617
  36     0.0001207783043723
  37     0.0000159248225673
  38    -0.0000297555491456
  39     0.0000025175503481
  40    -0.0000390440299850
  41     0.0000049281170322
  42    -0.0001493132633820
  43    -0.0004349056377297
  44     0.0004824224577410
  45    -0.0026922637888923
  46     0.0011519238196824
  47     0.0008960818490618
  48    -0.0000629737383349
  49     0.0096806219274093
  50    -0.0013888872274033
  51    -0.0002221148254184
  52    -0.0000984542907705
  53    -0.0001205033240231
  54     0.0076711033973968
  55    -0.0032371093319272
  56     0.0007134467877277
  57     0.0026914757629051
  58    -0.0004158534415560
  59     0.0007798263437033
  60    -0.0000354025222751
  61     0.0000893820244531
  62     0.0000887198733094
  63    -0.0000899184390071
  64    -0.0000766558713048
  65    -0.0003528427702998
  66     0.0003118385613260
  67    -0.0004539208851475
  68     0.0007899653883348
  69    -0.0038754991274618
  70    -0.0001493079300068
  71    -0.0005955181222097
  72     0.0024581852157429
  73    -0.0008661474824976
  74     0.0003725951057422
  75     0.0000070726475387
  76     0.0001910701090844
  77     0.0011917428304670
  78     0.0005210964951490
  79     0.0000393708411180
  80     0.0040359110364681
  81     0.0034065883650347
  82     0.0002483143887711
  83     0.0000006962887095
  84     0.0001229619913780
  85     0.0000412639263481
  86     0.0000605642146556
  87     0.0000709401857880
  88     0.0011507235986528
  89     0.0003341677136858
  90     0.0003176559712747
  91    -0.0005930095025706
  92    -0.0003734201335889
  93     0.0001639258504451
  94     0.0002869419159488
  95    -0.0052318058554995
  96    -0.0003641367761400
  97    -0.0001440422846475