ACID calculation from xyz coordinates                                   
SP        RwB97XD                                                     Aug-CC-pVDZ         
Number of atoms                            I               18
Info1-9                                    I   N=           9
          12           8           0           0           0         111
           1          18        -802
Full Title                                 C   N=           4
ACID calculation from xyz coordinates           
Route                                      C   N=           9
#p wb97xD/aug-cc-pvdz Geom=AllCheck Guess=Read NMR=CSGT IOp(
10/93=1) SCF=(Tight,MaxCycle=512) Int=UltraFine 
Charge                                     I                0
Multiplicity                               I                1
Number of electrons                        I               68
Number of alpha electrons                  I               34
Number of beta electrons                   I               34
Number of basis functions                  I              302
Number of independent functions            I              302
Number of point charges in /Mol/           I                0
Number of translation vectors              I                0
Atomic numbers                             I   N=          18
           6           6           6           7           5           6
           6           6           6           6           1           1
           1           1           1           1           1           1
Nuclear charges                            R   N=          18
  6.00000000E+00  6.00000000E+00  6.00000000E+00  7.00000000E+00  5.00000000E+00
  6.00000000E+00  6.00000000E+00  6.00000000E+00  6.00000000E+00  6.00000000E+00
  1.00000000E+00  1.00000000E+00  1.00000000E+00  1.00000000E+00  1.00000000E+00
  1.00000000E+00  1.00000000E+00  1.00000000E+00
Current cartesian coordinates              R   N=          54
  1.30740725E+00  4.71567811E+00  0.00000000E+00 -1.39450352E+00  4.52560824E+00
  0.00000000E+00 -2.57332932E+00  2.24613328E+00  0.00000000E+00 -1.24009319E+00
 -4.64935479E-07  0.00000000E+00  1.53068070E+00  1.53656560E-07  0.00000000E+00
  2.78066912E+00  2.59635281E+00  0.00000000E+00  2.78066912E+00 -2.59635330E+00
  0.00000000E+00  1.30740595E+00 -4.71567827E+00  0.00000000E+00 -1.39450369E+00
 -4.52560776E+00  0.00000000E+00 -2.57332906E+00 -2.24613288E+00  0.00000000E+00
  2.14031389E+00  6.60489313E+00  0.00000000E+00 -2.55319819E+00  6.22548974E+00
  0.00000000E+00 -4.62668891E+00  2.08564471E+00  0.00000000E+00  4.83174285E+00
  2.82644452E+00  0.00000000E+00  4.83174308E+00 -2.82644596E+00  0.00000000E+00
  2.14031174E+00 -6.60489374E+00  0.00000000E+00 -2.55320207E+00 -6.22548648E+00
  0.00000000E+00 -4.62668862E+00 -2.08564478E+00  0.00000000E+00
Number of symbols in /Mol/                 I                0
Force Field                                I                0
Atom Types                                 C   N=          18
                                                            
                                                            
                                                            
                                    
Int Atom Types                             I   N=          18
           0           0           0           0           0           0
           0           0           0           0           0           0
           0           0           0           0           0           0
MM charges                                 R   N=          18
  0.00000000E+00  0.00000000E+00  0.00000000E+00  0.00000000E+00  0.00000000E+00
  0.00000000E+00  0.00000000E+00  0.00000000E+00  0.00000000E+00  0.00000000E+00
  0.00000000E+00  0.00000000E+00  0.00000000E+00  0.00000000E+00  0.00000000E+00
  0.00000000E+00  0.00000000E+00  0.00000000E+00
Integer atomic weights                     I   N=          18
          12          12          12          14          11          12
          12          12          12          12           1           1
           1           1           1           1           1           1
Real atomic weights                        R   N=          18
  1.20000000E+01  1.20000000E+01  1.20000000E+01  1.40030740E+01  1.10093053E+01
  1.20000000E+01  1.20000000E+01  1.20000000E+01  1.20000000E+01  1.20000000E+01
  1.00782504E+00  1.00782504E+00  1.00782504E+00  1.00782504E+00  1.00782504E+00
  1.00782504E+00  1.00782504E+00  1.00782504E+00
Atom fragment info                         I   N=          18
           0           0           0           0           0           0
           0           0           0           0           0           0
           0           0           0           0           0           0
Atom residue num                           I   N=          18
           0           0           0           0           0           0
           0           0           0           0           0           0
           0           0           0           0           0           0
Nuclear spins                              I   N=          18
           0           0           0           2           3           0
           0           0           0           0           1           1
           1           1           1           1           1           1
Nuclear ZEff                               R   N=          18
 -3.60000000E+00 -3.60000000E+00 -3.60000000E+00 -4.55000000E+00 -2.75000000E+00
 -3.60000000E+00 -3.60000000E+00 -3.60000000E+00 -3.60000000E+00 -3.60000000E+00
 -1.00000000E+00 -1.00000000E+00 -1.00000000E+00 -1.00000000E+00 -1.00000000E+00
 -1.00000000E+00 -1.00000000E+00 -1.00000000E+00
Nuclear ZNuc                               R   N=          18
  6.00000000E+00  6.00000000E+00  6.00000000E+00  7.00000000E+00  5.00000000E+00
  6.00000000E+00  6.00000000E+00  6.00000000E+00  6.00000000E+00  6.00000000E+00
  1.00000000E+00  1.00000000E+00  1.00000000E+00  1.00000000E+00  1.00000000E+00
  1.00000000E+00  1.00000000E+00  1.00000000E+00
Nuclear QMom                               R   N=          18
  0.00000000E+00  0.00000000E+00  0.00000000E+00  2.04400000E+00  4.05900000E+00
  0.00000000E+00  0.00000000E+00  0.00000000E+00  0.00000000E+00  0.00000000E+00
  0.00000000E+00  0.00000000E+00  0.00000000E+00  0.00000000E+00  0.00000000E+00
  0.00000000E+00  0.00000000E+00  0.00000000E+00
Nuclear GFac                               R   N=          18
  0.00000000E+00  0.00000000E+00  0.00000000E+00  4.03761000E-01  2.68863700E+00
  0.00000000E+00  0.00000000E+00  0.00000000E+00  0.00000000E+00  0.00000000E+00
  2.79284600E+00  2.79284600E+00  2.79284600E+00  2.79284600E+00  2.79284600E+00
  2.79284600E+00  2.79284600E+00  2.79284600E+00
MicOpt                                     I   N=          18
          -1          -1          -1          -1          -1          -1
          -1          -1          -1          -1          -1          -1
          -1          -1          -1          -1          -1          -1
Number of residues                         I                0
Number of secondary structures             I                0
Redundant internal dimensions              I   N=           4
          93          19          30          44
Redundant internal coordinate indices      I   N=         372
           1           2           0           0           1           6
           0           0           1          11           0           0
           2           3           0           0           2          12
           0           0           3           4           0           0
           3          13           0           0           4           5
           0           0           4          10           0           0
           5           6           0           0           5           7
           0           0           6          14           0           0
           7           8           0           0           7          15
           0           0           8           9           0           0
           8          16           0           0           9          10
           0           0           9          17           0           0
          10          18           0           0           2           1
           6           0           2           1          11           0
           6           1          11           0           1           2
           3           0           1           2          12           0
           3           2          12           0           2           3
           4           0           2           3          13           0
           4           3          13           0           3           4
           5           0           3           4          10           0
           5           4          10           0           4           5
           6           0           4           5           7           0
           6           5           7           0           1           6
           5           0           1           6          14           0
           5           6          14           0           5           7
           8           0           5           7          15           0
           8           7          15           0           7           8
           9           0           7           8          16           0
           9           8          16           0           8           9
          10           0           8           9          17           0
          10           9          17           0           4          10
           9           0           4          10          18           0
           9          10          18           0           6           1
           2           3           6           1           2          12
          11           1           2           3          11           1
           2          12           2           1           6           5
           2           1           6          14          11           1
           6           5          11           1           6          14
           1           2           3           4           1           2
           3          13          12           2           3           4
          12           2           3          13           2           3
           4           5           2           3           4          10
          13           3           4           5          13           3
           4          10           3           4           5           6
           3           4           5           7          10           4
           5           6          10           4           5           7
           3           4          10           9           3           4
          10          18           5           4          10           9
           5           4          10          18           4           5
           6           1           4           5           6          14
           7           5           6           1           7           5
           6          14           4           5           7           8
           4           5           7          15           6           5
           7           8           6           5           7          15
           5           7           8           9           5           7
           8          16          15           7           8           9
          15           7           8          16           7           8
           9          10           7           8           9          17
          16           8           9          10          16           8
           9          17           8           9          10           4
           8           9          10          18          17           9
          10           4          17           9          10          18
Redundant internal coordinates             R   N=          93
  2.70858789E+00  2.58109284E+00  2.06467113E+00  2.56624948E+00  2.05722397E+00
  2.61201748E+00  2.05962186E+00  2.77077389E+00  2.61201622E+00  2.88158258E+00
  2.88158329E+00  2.06393935E+00  2.58109332E+00  2.06393969E+00  2.70858681E+00
  2.06467119E+00  2.56624920E+00  2.05722376E+00  2.05962179E+00  2.10803317E+00
  2.05626635E+00  2.11888579E+00  2.11829876E+00  2.09885777E+00  2.06602878E+00
  2.12864333E+00  2.12606844E+00  2.02847354E+00  2.10647376E+00  2.07023717E+00
  2.10647438E+00  2.01948634E+00  2.01948577E+00  2.24421319E+00  2.08543526E+00
  2.06654990E+00  2.13120015E+00  2.08543489E+00  2.13120048E+00  2.06654994E+00
  2.10803339E+00  2.11888577E+00  2.05626615E+00  2.11829889E+00  2.09885975E+00
  2.06602666E+00  2.12864329E+00  2.02847394E+00  2.12606808E+00  0.00000000E+00
  3.14159265E+00  3.14159265E+00  0.00000000E+00  0.00000000E+00  3.14159265E+00
  3.14159265E+00  0.00000000E+00  0.00000000E+00  3.14159265E+00  3.14159265E+00
  0.00000000E+00  0.00000000E+00  3.14159265E+00  3.14159265E+00  0.00000000E+00
  0.00000000E+00  3.14159265E+00  3.14159265E+00  0.00000000E+00  3.14159265E+00
  0.00000000E+00  0.00000000E+00  3.14159265E+00  0.00000000E+00  3.14159265E+00
  3.14159265E+00  0.00000000E+00  0.00000000E+00  3.14159265E+00  3.14159265E+00
  0.00000000E+00  0.00000000E+00  3.14159265E+00  3.14159265E+00  0.00000000E+00
  0.00000000E+00  3.14159265E+00  3.14159265E+00  0.00000000E+00  0.00000000E+00
  3.14159265E+00  3.14159265E+00  0.00000000E+00
ZRed-IntVec                                I   N=          93
           0           0           0           0           0           0
           0           0           0           0           0           0
           0           0           0           0           0           0
           0           0           0           0           0           0
           0           0           0           0           0           0
           0           0           0           0           0           0
           0           0           0           0           0           0
           0           0           0           0           0           0
           0           0           0           0           0           0
           0           0           0           0           0           0
           0           0           0           0           0           0
           0           0           0           0           0           0
           0           0           0           0           0           0
           0           0           0           0           0           0
           0           0           0           0           0           0
           0           0           0
ZRed-FPVec                                 R   N=          93
  0.00000000E+00  0.00000000E+00  0.00000000E+00  0.00000000E+00  0.00000000E+00
  0.00000000E+00  0.00000000E+00  0.00000000E+00  0.00000000E+00  0.00000000E+00
  0.00000000E+00  0.00000000E+00  0.00000000E+00  0.00000000E+00  0.00000000E+00
  0.00000000E+00  0.00000000E+00  0.00000000E+00  0.00000000E+00  0.00000000E+00
  0.00000000E+00  0.00000000E+00  0.00000000E+00  0.00000000E+00  0.00000000E+00
  0.00000000E+00  0.00000000E+00  0.00000000E+00  0.00000000E+00  0.00000000E+00
  0.00000000E+00  0.00000000E+00  0.00000000E+00  0.00000000E+00  0.00000000E+00
  0.00000000E+00  0.00000000E+00  0.00000000E+00  0.00000000E+00  0.00000000E+00
  0.00000000E+00  0.00000000E+00  0.00000000E+00  0.00000000E+00  0.00000000E+00
  0.00000000E+00  0.00000000E+00  0.00000000E+00  0.00000000E+00  0.00000000E+00
  0.00000000E+00  0.00000000E+00  0.00000000E+00  0.00000000E+00  0.00000000E+00
  0.00000000E+00  0.00000000E+00  0.00000000E+00  0.00000000E+00  0.00000000E+00
  0.00000000E+00  0.00000000E+00  0.00000000E+00  0.00000000E+00  0.00000000E+00
  0.00000000E+00  0.00000000E+00  0.00000000E+00  0.00000000E+00  0.00000000E+00
  0.00000000E+00  0.00000000E+00  0.00000000E+00  0.00000000E+00  0.00000000E+00
  0.00000000E+00  0.00000000E+00  0.00000000E+00  0.00000000E+00  0.00000000E+00
  0.00000000E+00  0.00000000E+00  0.00000000E+00  0.00000000E+00  0.00000000E+00
  0.00000000E+00  0.00000000E+00  0.00000000E+00  0.00000000E+00  0.00000000E+00
  0.00000000E+00  0.00000000E+00  0.00000000E+00
ZRed-Constraint1                           R   N=          93
  2.70858789E+00  2.58109284E+00  2.06467113E+00  2.56624948E+00  2.05722397E+00
  2.61201748E+00  2.05962186E+00  2.77077389E+00  2.61201622E+00  2.88158258E+00
  2.88158329E+00  2.06393935E+00  2.58109332E+00  2.06393969E+00  2.70858681E+00
  2.06467119E+00  2.56624920E+00  2.05722376E+00  2.05962179E+00  2.10803317E+00
  2.05626635E+00  2.11888579E+00  2.11829876E+00  2.09885777E+00  2.06602878E+00
  2.12864333E+00  2.12606844E+00  2.02847354E+00  2.10647376E+00  2.07023717E+00
  2.10647438E+00  2.01948634E+00  2.01948577E+00  2.24421319E+00  2.08543526E+00
  2.06654990E+00  2.13120015E+00  2.08543489E+00  2.13120048E+00  2.06654994E+00
  2.10803339E+00  2.11888577E+00  2.05626615E+00  2.11829889E+00  2.09885975E+00
  2.06602666E+00  2.12864329E+00  2.02847394E+00  2.12606808E+00  0.00000000E+00
  3.14159265E+00  3.14159265E+00  0.00000000E+00  0.00000000E+00  3.14159265E+00
  3.14159265E+00  0.00000000E+00  0.00000000E+00  3.14159265E+00  3.14159265E+00
  0.00000000E+00  0.00000000E+00  3.14159265E+00  3.14159265E+00  0.00000000E+00
  0.00000000E+00  3.14159265E+00  3.14159265E+00  0.00000000E+00  3.14159265E+00
  0.00000000E+00  0.00000000E+00  3.14159265E+00  0.00000000E+00  3.14159265E+00
  3.14159265E+00  0.00000000E+00  0.00000000E+00  3.14159265E+00  3.14159265E+00
  0.00000000E+00  0.00000000E+00  3.14159265E+00  3.14159265E+00  0.00000000E+00
  0.00000000E+00  3.14159265E+00  3.14159265E+00  0.00000000E+00  0.00000000E+00
  3.14159265E+00  3.14159265E+00  0.00000000E+00
ZRed-Constraint2                           R   N=          93
  2.70858789E+00  2.58109284E+00  2.06467113E+00  2.56624948E+00  2.05722397E+00
  2.61201748E+00  2.05962186E+00  2.77077389E+00  2.61201622E+00  2.88158258E+00
  2.88158329E+00  2.06393935E+00  2.58109332E+00  2.06393969E+00  2.70858681E+00
  2.06467119E+00  2.56624920E+00  2.05722376E+00  2.05962179E+00  2.10803317E+00
  2.05626635E+00  2.11888579E+00  2.11829876E+00  2.09885777E+00  2.06602878E+00
  2.12864333E+00  2.12606844E+00  2.02847354E+00  2.10647376E+00  2.07023717E+00
  2.10647438E+00  2.01948634E+00  2.01948577E+00  2.24421319E+00  2.08543526E+00
  2.06654990E+00  2.13120015E+00  2.08543489E+00  2.13120048E+00  2.06654994E+00
  2.10803339E+00  2.11888577E+00  2.05626615E+00  2.11829889E+00  2.09885975E+00
  2.06602666E+00  2.12864329E+00  2.02847394E+00  2.12606808E+00  0.00000000E+00
  3.14159265E+00  3.14159265E+00  0.00000000E+00  0.00000000E+00  3.14159265E+00
  3.14159265E+00  0.00000000E+00  0.00000000E+00  3.14159265E+00  3.14159265E+00
  0.00000000E+00  0.00000000E+00  3.14159265E+00  3.14159265E+00  0.00000000E+00
  0.00000000E+00  3.14159265E+00  3.14159265E+00  0.00000000E+00  3.14159265E+00
  0.00000000E+00  0.00000000E+00  3.14159265E+00  0.00000000E+00  3.14159265E+00
  3.14159265E+00  0.00000000E+00  0.00000000E+00  3.14159265E+00  3.14159265E+00
  0.00000000E+00  0.00000000E+00  3.14159265E+00  3.14159265E+00  0.00000000E+00
  0.00000000E+00  3.14159265E+00  3.14159265E+00  0.00000000E+00  0.00000000E+00
  3.14159265E+00  3.14159265E+00  0.00000000E+00
SymInf integers                            I   N=          26
           1           2           1           1           1           1
           1          -1           0           0           0           0
           0           0           0           0           0           0
           0           0           0           0           0           0
           0           0
RotTr to input orientation                 R   N=          12
  8.27794562E-05 -9.99999997E-01  0.00000000E+00  9.99999997E-01  8.27794562E-05
  0.00000000E+00  0.00000000E+00  0.00000000E+00  1.00000000E+00 -1.54972327E-05
  3.29737822E-04  0.00000000E+00
Number of contracted shells                I              130
Number of primitive shells                 I              286
Pure/Cartesian d shells                    I                0
Pure/Cartesian f shells                    I                0
Highest angular momentum                   I                2
Largest degree of contraction              I                7
Shell types                                I   N=         130
           0           0           0           0           1           1
           1          -2          -2           0           0           0
           0           1           1           1          -2          -2
           0           0           0           0           1           1
           1          -2          -2           0           0           0
           0           1           1           1          -2          -2
           0           0           0           0           1           1
           1          -2          -2           0           0           0
           0           1           1           1          -2          -2
           0           0           0           0           1           1
           1          -2          -2           0           0           0
           0           1           1           1          -2          -2
           0           0           0           0           1           1
           1          -2          -2           0           0           0
           0           1           1           1          -2          -2
           0           0           0           1           1           0
           0           0           1           1           0           0
           0           1           1           0           0           0
           1           1           0           0           0           1
           1           0           0           0           1           1
           0           0           0           1           1           0
           0           0           1           1
Number of primitives per shell             I   N=         130
           7           7           1           1           3           1
           1           1           1           7           7           1
           1           3           1           1           1           1
           7           7           1           1           3           1
           1           1           1           7           7           1
           1           3           1           1           1           1
           7           7           1           1           3           1
           1           1           1           7           7           1
           1           3           1           1           1           1
           7           7           1           1           3           1
           1           1           1           7           7           1
           1           3           1           1           1           1
           7           7           1           1           3           1
           1           1           1           7           7           1
           1           3           1           1           1           1
           3           1           1           1           1           3
           1           1           1           1           3           1
           1           1           1           3           1           1
           1           1           3           1           1           1
           1           3           1           1           1           1
           3           1           1           1           1           3
           1           1           1           1
Shell to atom map                          I   N=         130
           1           1           1           1           1           1
           1           1           1           2           2           2
           2           2           2           2           2           2
           3           3           3           3           3           3
           3           3           3           4           4           4
           4           4           4           4           4           4
           5           5           5           5           5           5
           5           5           5           6           6           6
           6           6           6           6           6           6
           7           7           7           7           7           7
           7           7           7           8           8           8
           8           8           8           8           8           8
           9           9           9           9           9           9
           9           9           9          10          10          10
          10          10          10          10          10          10
          11          11          11          11          11          12
          12          12          12          12          13          13
          13          13          13          14          14          14
          14          14          15          15          15          15
          15          16          16          16          16          16
          17          17          17          17          17          18
          18          18          18          18
Primitive exponents                        R   N=         286
  6.66500000E+03  1.00000000E+03  2.28000000E+02  6.47100000E+01  2.10600000E+01
  7.49500000E+00  2.79700000E+00  6.66500000E+03  2.28000000E+02  6.47100000E+01
  2.10600000E+01  7.49500000E+00  2.79700000E+00  5.21500000E-01  1.59600000E-01
  4.69000000E-02  9.43900000E+00  2.00200000E+00  5.45600000E-01  1.51700000E-01
  4.04100000E-02  5.50000000E-01  1.51000000E-01  6.66500000E+03  1.00000000E+03
  2.28000000E+02  6.47100000E+01  2.10600000E+01  7.49500000E+00  2.79700000E+00
  6.66500000E+03  2.28000000E+02  6.47100000E+01  2.10600000E+01  7.49500000E+00
  2.79700000E+00  5.21500000E-01  1.59600000E-01  4.69000000E-02  9.43900000E+00
  2.00200000E+00  5.45600000E-01  1.51700000E-01  4.04100000E-02  5.50000000E-01
  1.51000000E-01  6.66500000E+03  1.00000000E+03  2.28000000E+02  6.47100000E+01
  2.10600000E+01  7.49500000E+00  2.79700000E+00  6.66500000E+03  2.28000000E+02
  6.47100000E+01  2.10600000E+01  7.49500000E+00  2.79700000E+00  5.21500000E-01
  1.59600000E-01  4.69000000E-02  9.43900000E+00  2.00200000E+00  5.45600000E-01
  1.51700000E-01  4.04100000E-02  5.50000000E-01  1.51000000E-01  9.04600000E+03
  1.35700000E+03  3.09300000E+02  8.77300000E+01  2.85600000E+01  1.02100000E+01
  3.83800000E+00  9.04600000E+03  3.09300000E+02  8.77300000E+01  2.85600000E+01
  1.02100000E+01  3.83800000E+00  7.46600000E-01  2.24800000E-01  6.12400000E-02
  1.35500000E+01  2.91700000E+00  7.97300000E-01  2.18500000E-01  5.61100000E-02
  8.17000000E-01  2.30000000E-01  4.57000000E+03  6.85900000E+02  1.56500000E+02
  4.44700000E+01  1.44800000E+01  5.13100000E+00  1.89800000E+00  4.57000000E+03
  1.56500000E+02  4.44700000E+01  1.44800000E+01  5.13100000E+00  1.89800000E+00
  3.32900000E-01  1.04300000E-01  3.10500000E-02  6.00100000E+00  1.24100000E+00
  3.36400000E-01  9.53800000E-02  2.37800000E-02  3.43000000E-01  9.04000000E-02
  6.66500000E+03  1.00000000E+03  2.28000000E+02  6.47100000E+01  2.10600000E+01
  7.49500000E+00  2.79700000E+00  6.66500000E+03  2.28000000E+02  6.47100000E+01
  2.10600000E+01  7.49500000E+00  2.79700000E+00  5.21500000E-01  1.59600000E-01
  4.69000000E-02  9.43900000E+00  2.00200000E+00  5.45600000E-01  1.51700000E-01
  4.04100000E-02  5.50000000E-01  1.51000000E-01  6.66500000E+03  1.00000000E+03
  2.28000000E+02  6.47100000E+01  2.10600000E+01  7.49500000E+00  2.79700000E+00
  6.66500000E+03  2.28000000E+02  6.47100000E+01  2.10600000E+01  7.49500000E+00
  2.79700000E+00  5.21500000E-01  1.59600000E-01  4.69000000E-02  9.43900000E+00
  2.00200000E+00  5.45600000E-01  1.51700000E-01  4.04100000E-02  5.50000000E-01
  1.51000000E-01  6.66500000E+03  1.00000000E+03  2.28000000E+02  6.47100000E+01
  2.10600000E+01  7.49500000E+00  2.79700000E+00  6.66500000E+03  2.28000000E+02
  6.47100000E+01  2.10600000E+01  7.49500000E+00  2.79700000E+00  5.21500000E-01
  1.59600000E-01  4.69000000E-02  9.43900000E+00  2.00200000E+00  5.45600000E-01
  1.51700000E-01  4.04100000E-02  5.50000000E-01  1.51000000E-01  6.66500000E+03
  1.00000000E+03  2.28000000E+02  6.47100000E+01  2.10600000E+01  7.49500000E+00
  2.79700000E+00  6.66500000E+03  2.28000000E+02  6.47100000E+01  2.10600000E+01
  7.49500000E+00  2.79700000E+00  5.21500000E-01  1.59600000E-01  4.69000000E-02
  9.43900000E+00  2.00200000E+00  5.45600000E-01  1.51700000E-01  4.04100000E-02
  5.50000000E-01  1.51000000E-01  6.66500000E+03  1.00000000E+03  2.28000000E+02
  6.47100000E+01  2.10600000E+01  7.49500000E+00  2.79700000E+00  6.66500000E+03
  2.28000000E+02  6.47100000E+01  2.10600000E+01  7.49500000E+00  2.79700000E+00
  5.21500000E-01  1.59600000E-01  4.69000000E-02  9.43900000E+00  2.00200000E+00
  5.45600000E-01  1.51700000E-01  4.04100000E-02  5.50000000E-01  1.51000000E-01
  1.30100000E+01  1.96200000E+00  4.44600000E-01  1.22000000E-01  2.97400000E-02
  7.27000000E-01  1.41000000E-01  1.30100000E+01  1.96200000E+00  4.44600000E-01
  1.22000000E-01  2.97400000E-02  7.27000000E-01  1.41000000E-01  1.30100000E+01
  1.96200000E+00  4.44600000E-01  1.22000000E-01  2.97400000E-02  7.27000000E-01
  1.41000000E-01  1.30100000E+01  1.96200000E+00  4.44600000E-01  1.22000000E-01
  2.97400000E-02  7.27000000E-01  1.41000000E-01  1.30100000E+01  1.96200000E+00
  4.44600000E-01  1.22000000E-01  2.97400000E-02  7.27000000E-01  1.41000000E-01
  1.30100000E+01  1.96200000E+00  4.44600000E-01  1.22000000E-01  2.97400000E-02
  7.27000000E-01  1.41000000E-01  1.30100000E+01  1.96200000E+00  4.44600000E-01
  1.22000000E-01  2.97400000E-02  7.27000000E-01  1.41000000E-01  1.30100000E+01
  1.96200000E+00  4.44600000E-01  1.22000000E-01  2.97400000E-02  7.27000000E-01
  1.41000000E-01