[Molden Format]
[Atoms] Angs
 c       1                    6  2.430937176174e+00 -6.637358394209e-01  6.653689781246e-01
 c       2                    6  2.296401002367e+00  7.645523229606e-01  7.296012326938e-01
 c       3                    6  1.107092032918e+00  1.381591606031e+00  4.282686204099e-01
 n       4                    7 -9.127840464943e-03  6.510507625246e-01  2.574185269072e-02
 b       5                    5  2.481947900252e-03 -8.286592081978e-01  3.635794024688e-03
 c       6                    6  1.347075253344e+00 -1.470380123436e+00  3.400783404908e-01
 c       7                    6 -1.325185960972e+00 -1.493873343010e+00 -3.880150031032e-01
 c       8                    6 -2.442159606329e+00 -7.028801213390e-01 -6.207490814111e-01
 c       9                    6 -2.322339008737e+00  7.294159238662e-01 -6.427603653320e-01
 c      10                    6 -1.123826045745e+00  1.358086344794e+00 -3.986291924605e-01
 h      11                    1  3.414795410016e+00 -1.092131898166e+00  8.743107845906e-01
 h      12                    1  3.144264130565e+00  1.395170171469e+00  1.008377396543e+00
 h      13                    1  9.644522087904e-01  2.464432991538e+00  4.899183059241e-01
 h      14                    1  1.499095656302e+00 -2.555108924962e+00  3.028742579372e-01
 h      15                    1 -1.418782085588e+00 -2.578416228934e+00 -5.021628082683e-01
 h      16                    1 -3.420314985310e+00 -1.145830903191e+00 -8.450676249795e-01
 h      17                    1 -3.184012365472e+00  1.358951296648e+00 -8.877882131506e-01
 h      18                    1 -9.608469197565e-01  2.427765170826e+00 -5.830032747257e-01
[GTO]
1
 s           8
      6.665000000000e+03      6.915839628130e-04
      1.000000000000e+03      5.325796152934e-03
      2.280000000000e+02      2.706072104203e-02
      6.471000000000e+01      1.016568461408e-01
      2.106000000000e+01      2.745748236174e-01
      7.495000000000e+00      4.482943189238e-01
      2.797000000000e+00      2.849026107152e-01
      5.215000000000e-01      1.519485920608e-02
 s           8
      6.665000000000e+03     -2.932696526865e-04
      1.000000000000e+03     -2.318035473975e-03
      2.280000000000e+02     -1.149978603857e-02
      6.471000000000e+01     -4.682672700979e-02
      2.106000000000e+01     -1.284661687505e-01
      7.495000000000e+00     -3.012662724629e-01
      2.797000000000e+00     -2.556307023301e-01
      5.215000000000e-01      1.093793361012e+00
 s           1
      1.596000000000e-01      1.000000000000e+00
 s           1
      4.690000000000e-02      1.000000000000e+00
 p           3
      9.439000000000e+00      5.697925159004e-02
      2.002000000000e+00      3.132072115007e-01
      5.456000000000e-01      7.603767417375e-01
 p           1
      1.517000000000e-01      1.000000000000e+00
 p           1
      4.041000000000e-02      1.000000000000e+00
 d           1
      5.500000000000e-01      1.000000000000e+00
 d           1
      1.510000000000e-01      1.000000000000e+00

2
 s           8
      6.665000000000e+03      6.915839628130e-04
      1.000000000000e+03      5.325796152934e-03
      2.280000000000e+02      2.706072104203e-02
      6.471000000000e+01      1.016568461408e-01
      2.106000000000e+01      2.745748236174e-01
      7.495000000000e+00      4.482943189238e-01
      2.797000000000e+00      2.849026107152e-01
      5.215000000000e-01      1.519485920608e-02
 s           8
      6.665000000000e+03     -2.932696526865e-04
      1.000000000000e+03     -2.318035473975e-03
      2.280000000000e+02     -1.149978603857e-02
      6.471000000000e+01     -4.682672700979e-02
      2.106000000000e+01     -1.284661687505e-01
      7.495000000000e+00     -3.012662724629e-01
      2.797000000000e+00     -2.556307023301e-01
      5.215000000000e-01      1.093793361012e+00
 s           1
      1.596000000000e-01      1.000000000000e+00
 s           1
      4.690000000000e-02      1.000000000000e+00
 p           3
      9.439000000000e+00      5.697925159004e-02
      2.002000000000e+00      3.132072115007e-01
      5.456000000000e-01      7.603767417375e-01
 p           1
      1.517000000000e-01      1.000000000000e+00
 p           1
      4.041000000000e-02      1.000000000000e+00
 d           1
      5.500000000000e-01      1.000000000000e+00
 d           1
      1.510000000000e-01      1.000000000000e+00

3
 s           8
      6.665000000000e+03      6.915839628130e-04
      1.000000000000e+03      5.325796152934e-03
      2.280000000000e+02      2.706072104203e-02
      6.471000000000e+01      1.016568461408e-01
      2.106000000000e+01      2.745748236174e-01
      7.495000000000e+00      4.482943189238e-01
      2.797000000000e+00      2.849026107152e-01
      5.215000000000e-01      1.519485920608e-02
 s           8
      6.665000000000e+03     -2.932696526865e-04
      1.000000000000e+03     -2.318035473975e-03
      2.280000000000e+02     -1.149978603857e-02
      6.471000000000e+01     -4.682672700979e-02
      2.106000000000e+01     -1.284661687505e-01
      7.495000000000e+00     -3.012662724629e-01
      2.797000000000e+00     -2.556307023301e-01
      5.215000000000e-01      1.093793361012e+00
 s           1
      1.596000000000e-01      1.000000000000e+00
 s           1
      4.690000000000e-02      1.000000000000e+00
 p           3
      9.439000000000e+00      5.697925159004e-02
      2.002000000000e+00      3.132072115007e-01
      5.456000000000e-01      7.603767417375e-01
 p           1
      1.517000000000e-01      1.000000000000e+00
 p           1
      4.041000000000e-02      1.000000000000e+00
 d           1
      5.500000000000e-01      1.000000000000e+00
 d           1
      1.510000000000e-01      1.000000000000e+00

4
 s           8
      9.046000000000e+03      6.996174134255e-04
      1.357000000000e+03      5.386054629929e-03
      3.093000000000e+02      2.739102118906e-02
      8.773000000000e+01      1.031505919820e-01
      2.856000000000e+01      2.785706633174e-01
      1.021000000000e+01      4.482948494541e-01
      3.838000000000e+00      2.780859283953e-01
      7.466000000000e-01      1.543156123327e-02
 s           8
      9.046000000000e+03     -3.049900959534e-04
      1.357000000000e+03     -2.408026378508e-03
      3.093000000000e+02     -1.194444872518e-02
      8.773000000000e+01     -4.892599290902e-02
      2.856000000000e+01     -1.344727247250e-01
      1.021000000000e+01     -3.151125777001e-01
      3.838000000000e+00     -2.428578325496e-01
      7.466000000000e-01      1.094382206854e+00
 s           1
      2.248000000000e-01      1.000000000000e+00
 s           1
      6.124000000000e-02      1.000000000000e+00
 p           3
      1.355000000000e+01      5.890567677213e-02
      2.917000000000e+00      3.204611067143e-01
      7.973000000000e-01      7.530420617921e-01
 p           1
      2.185000000000e-01      1.000000000000e+00
 p           1
      5.611000000000e-02      1.000000000000e+00
 d           1
      8.170000000000e-01      1.000000000000e+00
 d           1
      2.300000000000e-01      1.000000000000e+00

5
 s           8
      4.570000000000e+03      6.955544180306e-04
      6.859000000000e+02      5.349572988100e-03
      1.565000000000e+02      2.711662870523e-02
      4.447000000000e+01      1.013150961206e-01
      1.448000000000e+01      2.718808293065e-01
      5.131000000000e+00      4.481159306152e-01
      1.898000000000e+00      2.899372621010e-01
      3.329000000000e-01      1.431283099861e-02
 s           8
      4.570000000000e+03     -2.812802240142e-04
      6.859000000000e+02     -2.219887811105e-03
      1.565000000000e+02     -1.101647150743e-02
      4.447000000000e+01     -4.434918985248e-02
      1.448000000000e+01     -1.209120479502e-01
      5.131000000000e+00     -2.807378995535e-01
      1.898000000000e+00     -2.660668087326e-01
      3.329000000000e-01      1.091784130514e+00
 s           1
      1.043000000000e-01      1.000000000000e+00
 s           1
      3.105000000000e-02      1.000000000000e+00
 p           3
      6.001000000000e+00      5.416586334015e-02
      1.241000000000e+00      3.023798901809e-01
      3.364000000000e-01      7.712922165481e-01
 p           1
      9.538000000000e-02      1.000000000000e+00
 p           1
      2.378000000000e-02      1.000000000000e+00
 d           1
      3.430000000000e-01      1.000000000000e+00
 d           1
      9.040000000000e-02      1.000000000000e+00

6
 s           8
      6.665000000000e+03      6.915839628130e-04
      1.000000000000e+03      5.325796152934e-03
      2.280000000000e+02      2.706072104203e-02
      6.471000000000e+01      1.016568461408e-01
      2.106000000000e+01      2.745748236174e-01
      7.495000000000e+00      4.482943189238e-01
      2.797000000000e+00      2.849026107152e-01
      5.215000000000e-01      1.519485920608e-02
 s           8
      6.665000000000e+03     -2.932696526865e-04
      1.000000000000e+03     -2.318035473975e-03
      2.280000000000e+02     -1.149978603857e-02
      6.471000000000e+01     -4.682672700979e-02
      2.106000000000e+01     -1.284661687505e-01
      7.495000000000e+00     -3.012662724629e-01
      2.797000000000e+00     -2.556307023301e-01
      5.215000000000e-01      1.093793361012e+00
 s           1
      1.596000000000e-01      1.000000000000e+00
 s           1
      4.690000000000e-02      1.000000000000e+00
 p           3
      9.439000000000e+00      5.697925159004e-02
      2.002000000000e+00      3.132072115007e-01
      5.456000000000e-01      7.603767417375e-01
 p           1
      1.517000000000e-01      1.000000000000e+00
 p           1
      4.041000000000e-02      1.000000000000e+00
 d           1
      5.500000000000e-01      1.000000000000e+00
 d           1
      1.510000000000e-01      1.000000000000e+00

7
 s           8
      6.665000000000e+03      6.915839628130e-04
      1.000000000000e+03      5.325796152934e-03
      2.280000000000e+02      2.706072104203e-02
      6.471000000000e+01      1.016568461408e-01
      2.106000000000e+01      2.745748236174e-01
      7.495000000000e+00      4.482943189238e-01
      2.797000000000e+00      2.849026107152e-01
      5.215000000000e-01      1.519485920608e-02
 s           8
      6.665000000000e+03     -2.932696526865e-04
      1.000000000000e+03     -2.318035473975e-03
      2.280000000000e+02     -1.149978603857e-02
      6.471000000000e+01     -4.682672700979e-02
      2.106000000000e+01     -1.284661687505e-01
      7.495000000000e+00     -3.012662724629e-01
      2.797000000000e+00     -2.556307023301e-01
      5.215000000000e-01      1.093793361012e+00
 s           1
      1.596000000000e-01      1.000000000000e+00
 s           1
      4.690000000000e-02      1.000000000000e+00
 p           3
      9.439000000000e+00      5.697925159004e-02
      2.002000000000e+00      3.132072115007e-01
      5.456000000000e-01      7.603767417375e-01
 p           1
      1.517000000000e-01      1.000000000000e+00
 p           1
      4.041000000000e-02      1.000000000000e+00
 d           1
      5.500000000000e-01      1.000000000000e+00
 d           1
      1.510000000000e-01      1.000000000000e+00

8
 s           8
      6.665000000000e+03      6.915839628130e-04
      1.000000000000e+03      5.325796152934e-03
      2.280000000000e+02      2.706072104203e-02
      6.471000000000e+01      1.016568461408e-01
      2.106000000000e+01      2.745748236174e-01
      7.495000000000e+00      4.482943189238e-01
      2.797000000000e+00      2.849026107152e-01
      5.215000000000e-01      1.519485920608e-02
 s           8
      6.665000000000e+03     -2.932696526865e-04
      1.000000000000e+03     -2.318035473975e-03
      2.280000000000e+02     -1.149978603857e-02
      6.471000000000e+01     -4.682672700979e-02
      2.106000000000e+01     -1.284661687505e-01
      7.495000000000e+00     -3.012662724629e-01
      2.797000000000e+00     -2.556307023301e-01
      5.215000000000e-01      1.093793361012e+00
 s           1
      1.596000000000e-01      1.000000000000e+00
 s           1
      4.690000000000e-02      1.000000000000e+00
 p           3
      9.439000000000e+00      5.697925159004e-02
      2.002000000000e+00      3.132072115007e-01
      5.456000000000e-01      7.603767417375e-01
 p           1
      1.517000000000e-01      1.000000000000e+00
 p           1
      4.041000000000e-02      1.000000000000e+00
 d           1
      5.500000000000e-01      1.000000000000e+00
 d           1
      1.510000000000e-01      1.000000000000e+00

9
 s           8
      6.665000000000e+03      6.915839628130e-04
      1.000000000000e+03      5.325796152934e-03
      2.280000000000e+02      2.706072104203e-02
      6.471000000000e+01      1.016568461408e-01
      2.106000000000e+01      2.745748236174e-01
      7.495000000000e+00      4.482943189238e-01
      2.797000000000e+00      2.849026107152e-01
      5.215000000000e-01      1.519485920608e-02
 s           8
      6.665000000000e+03     -2.932696526865e-04
      1.000000000000e+03     -2.318035473975e-03
      2.280000000000e+02     -1.149978603857e-02
      6.471000000000e+01     -4.682672700979e-02
      2.106000000000e+01     -1.284661687505e-01
      7.495000000000e+00     -3.012662724629e-01
      2.797000000000e+00     -2.556307023301e-01
      5.215000000000e-01      1.093793361012e+00
 s           1
      1.596000000000e-01      1.000000000000e+00
 s           1
      4.690000000000e-02      1.000000000000e+00
 p           3
      9.439000000000e+00      5.697925159004e-02
      2.002000000000e+00      3.132072115007e-01
      5.456000000000e-01      7.603767417375e-01
 p           1
      1.517000000000e-01      1.000000000000e+00
 p           1
      4.041000000000e-02      1.000000000000e+00
 d           1
      5.500000000000e-01      1.000000000000e+00
 d           1
      1.510000000000e-01      1.000000000000e+00

10
 s           8
      6.665000000000e+03      6.915839628130e-04
      1.000000000000e+03      5.325796152934e-03
      2.280000000000e+02      2.706072104203e-02
      6.471000000000e+01      1.016568461408e-01
      2.106000000000e+01      2.745748236174e-01
      7.495000000000e+00      4.482943189238e-01
      2.797000000000e+00      2.849026107152e-01
      5.215000000000e-01      1.519485920608e-02
 s           8
      6.665000000000e+03     -2.932696526865e-04
      1.000000000000e+03     -2.318035473975e-03
      2.280000000000e+02     -1.149978603857e-02
      6.471000000000e+01     -4.682672700979e-02
      2.106000000000e+01     -1.284661687505e-01
      7.495000000000e+00     -3.012662724629e-01
      2.797000000000e+00     -2.556307023301e-01
      5.215000000000e-01      1.093793361012e+00
 s           1
      1.596000000000e-01      1.000000000000e+00
 s           1
      4.690000000000e-02      1.000000000000e+00
 p           3
      9.439000000000e+00      5.697925159004e-02
      2.002000000000e+00      3.132072115007e-01
      5.456000000000e-01      7.603767417375e-01
 p           1
      1.517000000000e-01      1.000000000000e+00
 p           1
      4.041000000000e-02      1.000000000000e+00
 d           1
      5.500000000000e-01      1.000000000000e+00
 d           1
      1.510000000000e-01      1.000000000000e+00

11
 s           3
      1.301000000000e+01      3.349872639000e-02
      1.962000000000e+00      2.348008011741e-01
      4.446000000000e-01      8.136829578829e-01
 s           1
      1.220000000000e-01      1.000000000000e+00
 s           1
      2.974000000000e-02      1.000000000000e+00
 p           1
      7.270000000000e-01      1.000000000000e+00
 p           1
      1.410000000000e-01      1.000000000000e+00

12
 s           3
      1.301000000000e+01      3.349872639000e-02
      1.962000000000e+00      2.348008011741e-01
      4.446000000000e-01      8.136829578829e-01
 s           1
      1.220000000000e-01      1.000000000000e+00
 s           1
      2.974000000000e-02      1.000000000000e+00
 p           1
      7.270000000000e-01      1.000000000000e+00
 p           1
      1.410000000000e-01      1.000000000000e+00

13
 s           3
      1.301000000000e+01      3.349872639000e-02
      1.962000000000e+00      2.348008011741e-01
      4.446000000000e-01      8.136829578829e-01
 s           1
      1.220000000000e-01      1.000000000000e+00
 s           1
      2.974000000000e-02      1.000000000000e+00
 p           1
      7.270000000000e-01      1.000000000000e+00
 p           1
      1.410000000000e-01      1.000000000000e+00

14
 s           3
      1.301000000000e+01      3.349872639000e-02
      1.962000000000e+00      2.348008011741e-01
      4.446000000000e-01      8.136829578829e-01
 s           1
      1.220000000000e-01      1.000000000000e+00
 s           1
      2.974000000000e-02      1.000000000000e+00
 p           1
      7.270000000000e-01      1.000000000000e+00
 p           1
      1.410000000000e-01      1.000000000000e+00

15
 s           3
      1.301000000000e+01      3.349872639000e-02
      1.962000000000e+00      2.348008011741e-01
      4.446000000000e-01      8.136829578829e-01
 s           1
      1.220000000000e-01      1.000000000000e+00
 s           1
      2.974000000000e-02      1.000000000000e+00
 p           1
      7.270000000000e-01      1.000000000000e+00
 p           1
      1.410000000000e-01      1.000000000000e+00

16
 s           3
      1.301000000000e+01      3.349872639000e-02
      1.962000000000e+00      2.348008011741e-01
      4.446000000000e-01      8.136829578829e-01
 s           1
      1.220000000000e-01      1.000000000000e+00
 s           1
      2.974000000000e-02      1.000000000000e+00
 p           1
      7.270000000000e-01      1.000000000000e+00
 p           1
      1.410000000000e-01      1.000000000000e+00

17
 s           3
      1.301000000000e+01      3.349872639000e-02
      1.962000000000e+00      2.348008011741e-01
      4.446000000000e-01      8.136829578829e-01
 s           1
      1.220000000000e-01      1.000000000000e+00
 s           1
      2.974000000000e-02      1.000000000000e+00
 p           1
      7.270000000000e-01      1.000000000000e+00
 p           1
      1.410000000000e-01      1.000000000000e+00

18
 s           3
      1.301000000000e+01      3.349872639000e-02
      1.962000000000e+00      2.348008011741e-01
      4.446000000000e-01      8.136829578829e-01
 s           1
      1.220000000000e-01      1.000000000000e+00
 s           1
      2.974000000000e-02      1.000000000000e+00
 p           1
      7.270000000000e-01      1.000000000000e+00
 p           1
      1.410000000000e-01      1.000000000000e+00


[5D]
[7F]
[9G]
[MO]
 Ene=  -15.638384
 Spin=  Alpha
 Occup=    2.000000
   1     0.0000805905669914
   2     0.0001406975421072
   3    -0.0056840596604034
   4    -0.0044504586280273
   5    -0.0000118250785615
   6    -0.0000056987696910
   7     0.0000042043985001
   8     0.0011705972741353
   9    -0.0066940480647520
  10    -0.0002420362772859
  11     0.0028889136615898
  12     0.0033411981442738
  13     0.0010995533730537
  14     0.0000057257414372
  15     0.0000027601583281
  16    -0.0000083610653649
  17     0.0000244166760949
  18    -0.0000068167162957
  19     0.0002049839891967
  20     0.0003145731461092
  21     0.0003626725329125
  22     0.0006681368628350
  23     0.0016637332019397
  24    -0.0000178533607574
  25    -0.0000118076062145
  26    -0.0060499830637879
  27     0.0136986631964638
  28    -0.0000956281344321
  29     0.0000450920877437
  30    -0.0000256974383972
  31     0.0041169600792598
  32    -0.0093838032730618
  33     0.0007784647790374
  34    -0.0054249659475140
  35     0.0027130732944598
  36    -0.0014873184821361
  37    -0.0000028674481598
  38     0.0000360637423550
  39    -0.0000071137346539
  40     0.0000923687999664
  41     0.0000124903902555
  42    -0.0007178876106629
  43    -0.0003860279255712
  44     0.0008891455621657
  45    -0.0026679127801483
  46     0.0021070755416077
  47    -0.0001784829087944
  48    -0.0002738492932576
  49     0.0003744384333133
  50    -0.0275075049651415
  51     0.0003098125753748
  52     0.0001858980107016
  53     0.0001129030792538
  54     0.0129004331643671
  55     0.0031026607843070
  56     0.0039614641735138
  57    -0.0029629880569177
  58     0.0048549405064308
  59    -0.0002558966231026
  60     0.0000765560524480
  61     0.0000332837629999
  62     0.0000269096018570
  63     0.0001367316460334
  64     0.0001853345257789
  65     0.0008698049380315
  66    -0.0006866210767721
  67    -0.0016423229353542
  68     0.0013862702109441
  69    -0.0053196339155371
  70    -1.0030785985746324
  71    -0.0054051080837923
  72     0.0277555940522825
  73     0.0217531412933481
  74     0.0000033245175125
  75    -0.0009142103787518
  76     0.0000436811523485
  77    -0.0000535075720561
  78     0.0052221125968047
  79    -0.0000528366588678
  80     0.0002784819104698
  81     0.0029969571312963
  82     0.0000748627643806
  83     0.0001713255898649
  84    -0.0001541257297488
  85    -0.0000014299524126
  86    -0.0000312703611630
  87     0.0000055314418816
  88    -0.0005644307024744
  89     0.0012429680585977
  90     0.0000436956191434
  91     0.0017108257155454
  92    -0.0000015971675048
  93     0.0000986687896877
  94     0.0001151265060367
  95    -0.0001738696099375
  96     0.0042169899034547
  97     0.0000240127994054
  98    -0.0001191434498207
  99     0.0000176938086632
 100    -0.0001925008673287
 101     0.0028184355718978
 102    -0.0000540138472670
 103     0.0000326429743340
 104     0.0011114026407336
 105     0.0000436495421036
 106     0.0000430336852463
 107    -0.0000685121457214
 108     0.0000044472080322
 109    -0.0001417160147145
 110    -0.0000071070244771
 111    -0.0005900874418148
 112    -0.0001457030818468
 113     0.0000904704969437
 114    -0.0022676668505665
 115     0.0000314425030529
 116     0.0000045391711780
 117     0.0000263711653038
 118    -0.0012994986631726
 119     0.0087366406616036
 120    -0.0000294264907916
 121     0.0000432581915340
 122    -0.0000006681802428
 123    -0.0018492826667607
 124    -0.0005309137211506
 125    -0.0004972157237462
 126     0.0022076409349738
 127     0.0012250430478881
 128     0.0005040347248971
 129    -0.0000370132137821
 130     0.0000061148249608
 131    -0.0000141918363907
 132    -0.0000348363848626
 133    -0.0000480437035606
 134     0.0001142057542395
 135    -0.0002270269904720
 136     0.0000892924268670
 137    -0.0007772695929789
 138    -0.0001027646749289
 139     0.0000015955290171
 140     0.0000005564822559
 141    -0.0012816483080860
 142     0.0078942186820941
 143    -0.0000044529462434
 144     0.0000283909654888
 145    -0.0000049479129603
 146     0.0018088048110845
 147    -0.0004697150464483
 148     0.0004046001529431
 149    -0.0017027817442876
 150     0.0010680413157837
 151    -0.0002116567711692
 152    -0.0000341664764863
 153     0.0000087061325949
 154     0.0000189188537719
 155    -0.0000351573875662
 156     0.0000430669770510
 157     0.0000752033564330
 158    -0.0002101053068468
 159     0.0000193166947933
 160    -0.0008323231943951
 161     0.0000496055591956
 162     0.0000840183567041
 163     0.0001504708521287
 164    -0.0054844451497740
 165    -0.0036829846222295
 166     0.0000123090888000
 167    -0.0000058000328922
 168     0.0000078721001528
 169    -0.0011148019006199
 170    -0.0066063609126740
 171    -0.0003166965301598
 172    -0.0026587693002380
 173     0.0028409309402609
 174    -0.0007114647038827
 175     0.0000080282951476
 176     0.0000025381722345
 177     0.0000108662914411
 178     0.0000215863230604
 179     0.0000046283306180
 180     0.0001453369070035
 181     0.0001386234167654
 182    -0.0004495001197901
 183     0.0006911571265139
 184    -0.0016634551951308
 185    -0.0000099991029466
 186     0.0000027625514160
 187    -0.0060180047312619
 188     0.0126014514246455
 189     0.0000935515925592
 190     0.0000432285930001
 191     0.0000306363382159
 192    -0.0039235520173325
 193    -0.0094353871052538
 194    -0.0006134245031791
 195     0.0049024042376707
 196     0.0025574876666322
 197     0.0011372142927470
 198    -0.0000006243188513
 199     0.0000357174234267
 200     0.0000191291032909
 201     0.0000902781552483
 202    -0.0000089604927589
 203    -0.0006368558744532
 204    -0.0002651241259960
 205    -0.0009423328729696
 206    -0.0024716389244121
 207    -0.0021950670077650
 208    -0.0001861964386012
 209    -0.0002797860769299
 210     0.0000477887014123
 211    -0.0256900174014114
 212    -0.0003089735592520
 213     0.0001791568798567
 214    -0.0001014038305362
 215    -0.0130917126151069
 216     0.0031060040840358
 217    -0.0038706669556887
 218     0.0025534206850483
 219     0.0042903327949882
 220    -0.0001820565480876
 221     0.0000678108376329
 222     0.0000501803553904
 223     0.0000005129229451
 224     0.0001362265522471
 225    -0.0001927892559766
 226     0.0007302924600746
 227    -0.0010326339391389
 228     0.0016111298809768
 229     0.0014177542833716
 230     0.0051587403600931
 231     0.0000021650439105
 232    -0.0011510440559899
 233    -0.0002546914713786
 234    -0.0000013369908220
 235     0.0000070835300056
 236    -0.0000022326829938
 237     0.0002462110199637
 238    -0.0004783765240892
 239    -0.0000095571265362
 240    -0.0000119952339452
 241     0.0015413672832979
 242     0.0008678938904684
 243    -0.0000313399835788
 244    -0.0000092317561321
 245    -0.0000109957828179
 246    -0.0006281481993376
 247    -0.0006917113244703
 248    -0.0002128766393811
 249     0.0003156833092858
 250     0.0001722521593469
 251    -0.0021608762090580
 252    -0.0000340761371187
 253    -0.0001639268362665
 254    -0.0000313663853096
 255     0.0013021798416723
 256     0.0003619804393677
 257     0.0002611214597190
 258    -0.0000268052210547
 259    -0.0018867687160340
 260     0.0010325863388908
 261    -0.0000013893462419
 262    -0.0000194004561177
 263     0.0000026555826131
 264     0.0004470499178068
 265    -0.0003419366371021
 266     0.0001148296474388
 267    -0.0000255959025714
 268    -0.0020527304239331
 269     0.0010413512545322
 270     0.0000028287195645
 271    -0.0000166950931560
 272    -0.0000010161178556
 273    -0.0004461913000065
 274    -0.0003950762244110
 275    -0.0001908896253699
 276    -0.0000001855443173
 277    -0.0011724632060096
 278    -0.0001890230757950
 279     0.0000005535168472
 280     0.0000072448818058
 281     0.0000021889320641
 282    -0.0002381827392485
 283    -0.0004829747873619
 284    -0.0000513192300543
 285    -0.0000052367623038
 286     0.0014914446881405
 287     0.0006907596591073
 288     0.0000361916901434
 289    -0.0000086028690967
 290     0.0000142600550613
 291     0.0006536114050447
 292    -0.0006281279751693
 293     0.0002421504485506
 294     0.0003177579347924
 295     0.0002400103061664
 296    -0.0017994574477508
 297     0.0000327241199349
 298    -0.0001622863285625
 299     0.0000547780803605
 300    -0.0011941108685778
 301     0.0003709052705841
 302    -0.0001583911761640
 Ene=  -11.291712
 Spin=  Alpha
 Occup=    2.000000
   1    -0.0000144337449860
   2    -0.0000293020079035
   3     0.0033645418794965
   4     0.0062318999786153
   5    -0.0000053422131861
   6     0.0000145427267663
   7    -0.0000034248176155
   8    -0.0015392379477957
   9    -0.0036318693278635
  10    -0.0003560660899180
  11     0.0012206928676879
  12     0.0032251887947483
  13     0.0005698154569518
  14     0.0000143517222092
  15    -0.0000172697121131
  16     0.0000186404460684
  17    -0.0000253492595964
  18     0.0000301203242036
  19    -0.0001769090028500
  20     0.0001505179692059
  21     0.0001321679725191
  22     0.0007636907076140
  23     0.0010473149006471
  24    -0.0001084973863861
  25    -0.0001064018895457
  26    -0.0042769997445160
  27     0.0030682395549855
  28     0.0000968332103882
  29    -0.0000517382133819
  30     0.0000338385533649
  31     0.0026340045252328
  32    -0.0026942285417070
  33    -0.0001774121916316
  34    -0.0020267813024855
  35     0.0052039952787696
  36    -0.0001559631546193
  37     0.0000254958143629
  38    -0.0000039241879055
  39    -0.0000076155645056
  40    -0.0000092393462534
  41    -0.0000072254903719
  42     0.0000326074791453
  43     0.0004640638084812
  44     0.0001522011381249
  45    -0.0004462876907912
  46     0.0008377504043542
  47    -0.0047533279956068
  48    -0.0006723315068967
  49    -0.0005385789900131
  50    -0.0101008012601201
  51     0.0001433230539101
  52     0.0000682580355781
  53     0.0000392645525588
  54     0.0050059006464366
  55    -0.0016788587836778
  56     0.0017127222022767
  57    -0.0057866853810281
  58     0.0009958540427244
  59    -0.0017120429277604
  60    -0.0001198268540592
  61     0.0000771931868409
  62     0.0000069339296355
  63     0.0000023094569789
  64    -0.0000269331494225
  65    -0.0001246129936382
  66     0.0008192914566759
  67    -0.0011691414441014
  68     0.0007634753191434
  69    -0.0022093096551012
  70     0.0002083593440689
  71     0.0007624222526776
  72    -0.0038492886199021
  73     0.0018723970504019
  74    -0.0003427203367599
  75     0.0001975373033776
  76    -0.0001826752882452
  77     0.0045296358672592
  78    -0.0019708654231718
  79     0.0016032424216352
  80     0.0074557290405986
  81    -0.0074271727685384
  82     0.0022715531317529
  83     0.0001144331423245
  84    -0.0000990578072257
  85     0.0000298404568243
  86    -0.0000076858831938
  87     0.0000142432755241
  88     0.0003057838159203
  89    -0.0004224963357635
  90     0.0008096571076219
  91    -0.0005022934041151
  92     0.0024788412383249
  93    -0.0003223089915032
  94    -0.0005310313158189
  95    -0.0018803568381869
  96     0.0049164246541710
  97     0.0000402563738992