 Entering Gaussian System, Link 0=g16
 Initial command:
 /local/gaussian-16.A03/g16/l1.exe "/scratch/3071537/3D_NICS/Gau-29254.inp" -scrdir="/scratch/3071537/3D_NICS/"
 Default CPUs for threads: 0-9,14-23,28-37,42-51
 Default is to use a total of  40 processors:
                               40 via shared-memory
                                1 via Linda
 Entering Link 1 = /local/gaussian-16.A03/g16/l1.exe PID=     29256.
  
 Copyright (c) 1988,1990,1992,1993,1995,1998,2003,2009,2016,
            Gaussian, Inc.  All Rights Reserved.
  
 This is part of the Gaussian(R) 16 program.  It is based on
 the Gaussian(R) 09 system (copyright 2009, Gaussian, Inc.),
 the Gaussian(R) 03 system (copyright 2003, Gaussian, Inc.),
 the Gaussian(R) 98 system (copyright 1998, Gaussian, Inc.),
 the Gaussian(R) 94 system (copyright 1995, Gaussian, Inc.),
 the Gaussian 92(TM) system (copyright 1992, Gaussian, Inc.),
 the Gaussian 90(TM) system (copyright 1990, Gaussian, Inc.),
 the Gaussian 88(TM) system (copyright 1988, Gaussian, Inc.),
 the Gaussian 86(TM) system (copyright 1986, Carnegie Mellon
 University), and the Gaussian 82(TM) system (copyright 1983,
 Carnegie Mellon University). Gaussian is a federally registered
 trademark of Gaussian, Inc.
  
 This software contains proprietary and confidential information,
 including trade secrets, belonging to Gaussian, Inc.
  
 This software is provided under written license and may be
 used, copied, transmitted, or stored only in accord with that
 written license.
  
 The following legend is applicable only to US Government
 contracts under FAR:
  
                    RESTRICTED RIGHTS LEGEND
  
 Use, reproduction and disclosure by the US Government is
 subject to restrictions as set forth in subparagraphs (a)
 and (c) of the Commercial Computer Software - Restricted
 Rights clause in FAR 52.227-19.
  
 Gaussian, Inc.
 340 Quinnipiac St., Bldg. 40, Wallingford CT 06492
  
  
 ---------------------------------------------------------------
 Warning -- This program may not be used in any manner that
 competes with the business of Gaussian, Inc. or will provide
 assistance to any competitor of Gaussian, Inc.  The licensee
 of this program is prohibited from giving any competitor of
 Gaussian, Inc. access to this program.  By using this program,
 the user acknowledges that Gaussian, Inc. is engaged in the
 business of creating and licensing software in the field of
 computational chemistry and represents and warrants to the
 licensee that it is not a competitor of Gaussian, Inc. and that
 it will not use this program in any manner prohibited above.
 ---------------------------------------------------------------
  

 Cite this work as:
 Gaussian 16, Revision A.03,
 M. J. Frisch, G. W. Trucks, H. B. Schlegel, G. E. Scuseria, 
 M. A. Robb, J. R. Cheeseman, G. Scalmani, V. Barone, 
 G. A. Petersson, H. Nakatsuji, X. Li, M. Caricato, A. V. Marenich, 
 J. Bloino, B. G. Janesko, R. Gomperts, B. Mennucci, H. P. Hratchian, 
 J. V. Ortiz, A. F. Izmaylov, J. L. Sonnenberg, D. Williams-Young, 
 F. Ding, F. Lipparini, F. Egidi, J. Goings, B. Peng, A. Petrone, 
 T. Henderson, D. Ranasinghe, V. G. Zakrzewski, J. Gao, N. Rega, 
 G. Zheng, W. Liang, M. Hada, M. Ehara, K. Toyota, R. Fukuda, 
 J. Hasegawa, M. Ishida, T. Nakajima, Y. Honda, O. Kitao, H. Nakai, 
 T. Vreven, K. Throssell, J. A. Montgomery, Jr., J. E. Peralta, 
 F. Ogliaro, M. J. Bearpark, J. J. Heyd, E. N. Brothers, K. N. Kudin, 
 V. N. Staroverov, T. A. Keith, R. Kobayashi, J. Normand, 
 K. Raghavachari, A. P. Rendell, J. C. Burant, S. S. Iyengar, 
 J. Tomasi, M. Cossi, J. M. Millam, M. Klene, C. Adamo, R. Cammi, 
 J. W. Ochterski, R. L. Martin, K. Morokuma, O. Farkas, 
 J. B. Foresman, and D. J. Fox, Gaussian, Inc., Wallingford CT, 2016.
 
 ******************************************
 Gaussian 16:  ES64L-G16RevA.03 25-Dec-2016
                20-Nov-2025 
 ******************************************
 %nprocshared=40
 Will use up to   40 processors via shared memory.
 %mem=90gb
 %chk=normal_opt_3D_NICS.chk
 -----------------------------------------------------------------
 #p nmr=giao wb97x/aug-cc-pvdz nosymm geom=connectivity guess=read
 -----------------------------------------------------------------
 1/38=1,57=2,172=1/1;
 2/12=2,15=1,17=6,18=5,40=1/2;
 3/5=16,7=10,11=2,25=1,30=1,74=-57,116=-2/1,2,3,8;
 4/5=1/1;
 5/5=2,38=6/2;
 8/6=1,10=90,11=11/1;
 10/13=100,31=1,45=16/2;
 6/7=2,8=2,9=2,10=2,28=1/1;
 99/9=1/99;
 Leave Link    1 at Thu Nov 20 19:34:42 2025, MaxMem= 12079595520 cpu:               6.7 elap:               0.3
 (Enter /local/gaussian-16.A03/g16/l101.exe)
 --------------------------
 File Created by py.Aroma 5
 --------------------------
 Symbolic Z-matrix:
 Charge =  0 Multiplicity = 1
 C                     2.49548  -0.69147   0. 
 C                     2.39478   0.73831   0. 
 C                     1.18848   1.36202   0. 
 N                    -0.00006   0.6564    0. 
 B                     0.00006  -0.80983   0. 
 C                     1.37404  -1.47118   0. 
 C                    -1.37382  -1.47141   0. 
 C                    -2.49538  -0.69188   0. 
 C                    -2.39492   0.73792   0. 
 C                    -1.18872   1.36182   0. 
 H                     3.49524  -1.13214   0. 
 H                     3.29427   1.35154   0. 
 H                     1.10347   2.4486    0. 
 H                     1.49589  -2.55655   0. 
 H                    -1.49549  -2.5568    0. 
 H                    -3.49507  -1.13272   0. 
 H                    -3.29451   1.351     0. 
 H                    -1.10389   2.44842   0. 
 Bq                    4.9      -3.56     -0.4 
 Bq                    4.9      -3.56     -0.3 
 Bq                    4.9      -3.56     -0.2 
 Bq                    4.9      -3.56     -0.1 
 Bq                    4.9      -3.56      0. 
 Bq                    4.9      -3.56      0.1 
 Bq                    4.9      -3.56      0.2 
 Bq                    4.9      -3.56      0.3 
 Bq                    4.9      -3.56      0.4 
 Bq                    4.9      -3.56      0.5 
 Bq                    4.9      -3.56      0.6 
 Bq                    4.9      -3.56      0.7 
 Bq                    4.9      -3.56      0.8 
 Bq                    4.9      -3.56      0.9 
 Bq                    4.9      -3.56      1. 
 Bq                    4.9      -3.56      1.1 
 Bq                    4.9      -3.56      1.2 
 Bq                    4.9      -3.56      1.3 
 Bq                    4.9      -3.56      1.4 
 Bq                    4.9      -3.56      1.5 
 Bq                    4.9      -3.56      1.6 
 Bq                    4.9      -3.56      1.7 
 Bq                    4.9      -3.56      1.8 
 Bq                    4.9      -3.56      1.9 
 Bq                    4.9      -3.56      2. 
 Bq                    4.9      -3.46     -2. 
 Bq                    4.9      -3.46     -1.9 
 Bq                    4.9      -3.46     -1.8 
 Bq                    4.9      -3.46     -1.7 
 Bq                    4.9      -3.46     -1.6 
 Bq                    4.9      -3.46     -1.5 
 Bq                    4.9      -3.46     -1.4 
 Bq                    4.9      -3.46     -1.3 
 Bq                    4.9      -3.46     -1.2 
 Bq                    4.9      -3.46     -1.1 
 Bq                    4.9      -3.46     -1. 
 Bq                    4.9      -3.46     -0.9 
 Bq                    4.9      -3.46     -0.8 
 Bq                    4.9      -3.46     -0.7 
 Bq                    4.9      -3.46     -0.6 
 Bq                    4.9      -3.46     -0.5 
 Bq                    4.9      -3.46     -0.4 
 Bq                    4.9      -3.46     -0.3 
 Bq                    4.9      -3.46     -0.2 
 Bq                    4.9      -3.46     -0.1 
 Bq                    4.9      -3.46      0. 
 Bq                    4.9      -3.46      0.1 
 Bq                    4.9      -3.46      0.2 
 Bq                    4.9      -3.46      0.3 
 Bq                    4.9      -3.46      0.4 
 Bq                    4.9      -3.46      0.5 
 Bq                    4.9      -3.46      0.6 
 Bq                    4.9      -3.46      0.7 
 Bq                    4.9      -3.46      0.8 
 Bq                    4.9      -3.46      0.9 
 Bq                    4.9      -3.46      1. 
 Bq                    4.9      -3.46      1.1 
 Bq                    4.9      -3.46      1.2 
 Bq                    4.9      -3.46      1.3 
 Bq                    4.9      -3.46      1.4 
 Bq                    4.9      -3.46      1.5 
 Bq                    4.9      -3.46      1.6 
 Bq                    4.9      -3.46      1.7 
 Bq                    4.9      -3.46      1.8 
 Bq                    4.9      -3.46      1.9 
 Bq                    4.9      -3.46      2. 
 Bq                    4.9      -3.36     -2. 
 Bq                    4.9      -3.36     -1.9 
 Bq                    4.9      -3.36     -1.8 
 Bq                    4.9      -3.36     -1.7 
 Bq                    4.9      -3.36     -1.6 
 Bq                    4.9      -3.36     -1.5 
 Bq                    4.9      -3.36     -1.4 
 Bq                    4.9      -3.36     -1.3 
 Bq                    4.9      -3.36     -1.2 
 Bq                    4.9      -3.36     -1.1 
 Bq                    4.9      -3.36     -1. 
 Bq                    4.9      -3.36     -0.9 
 Bq                    4.9      -3.36     -0.8 
 Bq                    4.9      -3.36     -0.7 
 Bq                    4.9      -3.36     -0.6 
 Bq                    4.9      -3.36     -0.5 
 Bq                    4.9      -3.36     -0.4 
 Bq                    4.9      -3.36     -0.3 
 Bq                    4.9      -3.36     -0.2 
 Bq                    4.9      -3.36     -0.1 
 Bq                    4.9      -3.36      0. 
 Bq                    4.9      -3.36      0.1 
 Bq                    4.9      -3.36      0.2 
 Bq                    4.9      -3.36      0.3 
 Bq                    4.9      -3.36      0.4 
 Bq                    4.9      -3.36      0.5 
 Bq                    4.9      -3.36      0.6 
 Bq                    4.9      -3.36      0.7 
 Bq                    4.9      -3.36      0.8 
 Bq                    4.9      -3.36      0.9 
 Bq                    4.9      -3.36      1. 
 Bq                    4.9      -3.36      1.1 
 Bq                    4.9      -3.36      1.2 
 Bq                    4.9      -3.36      1.3 
 Bq                    4.9      -3.36      1.4 
 Bq                    4.9      -3.36      1.5 
 Bq                    4.9      -3.36      1.6 
 Bq                    4.9      -3.36      1.7 
 Bq                    4.9      -3.36      1.8 
 Bq                    4.9      -3.36      1.9 
 Bq                    4.9      -3.36      2. 
 Bq                    4.9      -3.26     -2. 
 Bq                    4.9      -3.26     -1.9 
 Bq                    4.9      -3.26     -1.8 
 Bq                    4.9      -3.26     -1.7 
 Bq                    4.9      -3.26     -1.6 
 Bq                    4.9      -3.26     -1.5 
 Bq                    4.9      -3.26     -1.4 
 Bq                    4.9      -3.26     -1.3 
 Bq                    4.9      -3.26     -1.2 
 Bq                    4.9      -3.26     -1.1 
 Bq                    4.9      -3.26     -1. 
 Bq                    4.9      -3.26     -0.9 
 Bq                    4.9      -3.26     -0.8 
 Bq                    4.9      -3.26     -0.7 
 Bq                    4.9      -3.26     -0.6 
 Bq                    4.9      -3.26     -0.5 
 Bq                    4.9      -3.26     -0.4 
 Bq                    4.9      -3.26     -0.3 
 Bq                    4.9      -3.26     -0.2 
 Bq                    4.9      -3.26     -0.1 
 Bq                    4.9      -3.26      0. 
 Bq                    4.9      -3.26      0.1 
 Bq                    4.9      -3.26      0.2 
 Bq                    4.9      -3.26      0.3 
 Bq                    4.9      -3.26      0.4 
 Bq                    4.9      -3.26      0.5 
 Bq                    4.9      -3.26      0.6 
 Bq                    4.9      -3.26      0.7 
 Bq                    4.9      -3.26      0.8 
 Bq                    4.9      -3.26      0.9 
 Bq                    4.9      -3.26      1. 
 Bq                    4.9      -3.26      1.1 
 Bq                    4.9      -3.26      1.2 
 Bq                    4.9      -3.26      1.3 
 Bq                    4.9      -3.26      1.4 
 Bq                    4.9      -3.26      1.5 
 Bq                    4.9      -3.26      1.6 
 Bq                    4.9      -3.26      1.7 
 Bq                    4.9      -3.26      1.8 
 Bq                    4.9      -3.26      1.9 
 Bq                    4.9      -3.26      2. 
 Bq                    4.9      -3.16     -2. 
 Bq                    4.9      -3.16     -1.9 
 Bq                    4.9      -3.16     -1.8 
 Bq                    4.9      -3.16     -1.7 
 Bq                    4.9      -3.16     -1.6 
 Bq                    4.9      -3.16     -1.5 
 Bq                    4.9      -3.16     -1.4 
 Bq                    4.9      -3.16     -1.3 
 Bq                    4.9      -3.16     -1.2 
 Bq                    4.9      -3.16     -1.1 
 Bq                    4.9      -3.16     -1. 
 Bq                    4.9      -3.16     -0.9 
 Bq                    4.9      -3.16     -0.8 
 Bq                    4.9      -3.16     -0.7 
 Bq                    4.9      -3.16     -0.6 
 Bq                    4.9      -3.16     -0.5 
 Bq                    4.9      -3.16     -0.4 
 Bq                    4.9      -3.16     -0.3 
 Bq                    4.9      -3.16     -0.2 
 Bq                    4.9      -3.16     -0.1 
 Bq                    4.9      -3.16      0. 
 Bq                    4.9      -3.16      0.1 
 Bq                    4.9      -3.16      0.2 
 Bq                    4.9      -3.16      0.3 
 Bq                    4.9      -3.16      0.4 
 Bq                    4.9      -3.16      0.5 
 Bq                    4.9      -3.16      0.6 
 Bq                    4.9      -3.16      0.7 
 Bq                    4.9      -3.16      0.8 
 Bq                    4.9      -3.16      0.9 
 Bq                    4.9      -3.16      1. 
 Bq                    4.9      -3.16      1.1 
 Bq                    4.9      -3.16      1.2 
 Bq                    4.9      -3.16      1.3 
 Bq                    4.9      -3.16      1.4 
 Bq                    4.9      -3.16      1.5 
 Bq                    4.9      -3.16      1.6 
 Bq                    4.9      -3.16      1.7 
 Bq                    4.9      -3.16      1.8 
 Bq                    4.9      -3.16      1.9 
 Bq                    4.9      -3.16      2. 
 Bq                    4.9      -3.06     -2. 
 Bq                    4.9      -3.06     -1.9 
 Bq                    4.9      -3.06     -1.8 
 Bq                    4.9      -3.06     -1.7 
 Bq                    4.9      -3.06     -1.6 
 Bq                    4.9      -3.06     -1.5 
 Bq                    4.9      -3.06     -1.4 
 Bq                    4.9      -3.06     -1.3 
 Bq                    4.9      -3.06     -1.2 
 Bq                    4.9      -3.06     -1.1 
 Bq                    4.9      -3.06     -1. 
 Bq                    4.9      -3.06     -0.9 
 Bq                    4.9      -3.06     -0.8 
 Bq                    4.9      -3.06     -0.7 
 Bq                    4.9      -3.06     -0.6 
 Bq                    4.9      -3.06     -0.5 
 Bq                    4.9      -3.06     -0.4 
 Bq                    4.9      -3.06     -0.3 
 Bq                    4.9      -3.06     -0.2 
 Bq                    4.9      -3.06     -0.1 
 Bq                    4.9      -3.06      0. 
 Bq                    4.9      -3.06      0.1 
 Bq                    4.9      -3.06      0.2 
 Bq                    4.9      -3.06      0.3 
 Bq                    4.9      -3.06      0.4 
 Bq                    4.9      -3.06      0.5 
 Bq                    4.9      -3.06      0.6 
 Bq                    4.9      -3.06      0.7 
 Bq                    4.9      -3.06      0.8 
 Bq                    4.9      -3.06      0.9 
 Bq                    4.9      -3.06      1. 
 Bq                    4.9      -3.06      1.1 
 Bq                    4.9      -3.06      1.2 
 Bq                    4.9      -3.06      1.3 
 Bq                    4.9      -3.06      1.4 
 Bq                    4.9      -3.06      1.5 
 Bq                    4.9      -3.06      1.6 
 Bq                    4.9      -3.06      1.7 
 Bq                    4.9      -3.06      1.8 
 Bq                    4.9      -3.06      1.9 
 Bq                    4.9      -3.06      2. 
 Bq                    4.9      -2.96     -2. 
 Bq                    4.9      -2.96     -1.9 
 Bq                    4.9      -2.96     -1.8 
 Bq                    4.9      -2.96     -1.7 
 Bq                    4.9      -2.96     -1.6 
 Bq                    4.9      -2.96     -1.5 
 Bq                    4.9      -2.96     -1.4 
 Bq                    4.9      -2.96     -1.3 
 Bq                    4.9      -2.96     -1.2 
 Bq                    4.9      -2.96     -1.1 
 Bq                    4.9      -2.96     -1. 
 Bq                    4.9      -2.96     -0.9 
 Bq                    4.9      -2.96     -0.8 
 Bq                    4.9      -2.96     -0.7 
 Bq                    4.9      -2.96     -0.6 
 Bq                    4.9      -2.96     -0.5 
 Bq                    4.9      -2.96     -0.4 
 Bq                    4.9      -2.96     -0.3 
 Bq                    4.9      -2.96     -0.2 
 Bq                    4.9      -2.96     -0.1 
 Bq                    4.9      -2.96      0. 
 Bq                    4.9      -2.96      0.1 
 Bq                    4.9      -2.96      0.2 
 Bq                    4.9      -2.96      0.3 
 Bq                    4.9      -2.96      0.4 
 Bq                    4.9      -2.96      0.5 
 Bq                    4.9      -2.96      0.6 
 Bq                    4.9      -2.96      0.7 
 Bq                    4.9      -2.96      0.8 
 Bq                    4.9      -2.96      0.9 
 Bq                    4.9      -2.96      1. 
 Bq                    4.9      -2.96      1.1 
 Bq                    4.9      -2.96      1.2 
 Bq                    4.9      -2.96      1.3 
 Bq                    4.9      -2.96      1.4 
 Bq                    4.9      -2.96      1.5 
 Bq                    4.9      -2.96      1.6 
 Bq                    4.9      -2.96      1.7 
 Bq                    4.9      -2.96      1.8 
 Bq                    4.9      -2.96      1.9 
 Bq                    4.9      -2.96      2. 
 Bq                    4.9      -2.86     -2. 
 Bq                    4.9      -2.86     -1.9 
 Bq                    4.9      -2.86     -1.8 
 Bq                    4.9      -2.86     -1.7 
 Bq                    4.9      -2.86     -1.6 
 Bq                    4.9      -2.86     -1.5 
 Bq                    4.9      -2.86     -1.4 
 Bq                    4.9      -2.86     -1.3 
 Bq                    4.9      -2.86     -1.2 
 Bq                    4.9      -2.86     -1.1 
 Bq                    4.9      -2.86     -1. 
 Bq                    4.9      -2.86     -0.9 
 Bq                    4.9      -2.86     -0.8 
 Bq                    4.9      -2.86     -0.7 
 Bq                    4.9      -2.86     -0.6 
 Bq                    4.9      -2.86     -0.5 
 Bq                    4.9      -2.86     -0.4 
 Bq                    4.9      -2.86     -0.3 
 Bq                    4.9      -2.86     -0.2 
 Bq                    4.9      -2.86     -0.1 
 Bq                    4.9      -2.86      0. 
 Bq                    4.9      -2.86      0.1 
 Bq                    4.9      -2.86      0.2 
 Bq                    4.9      -2.86      0.3 
 Bq                    4.9      -2.86      0.4 
 Bq                    4.9      -2.86      0.5 
 Bq                    4.9      -2.86      0.6 
 Bq                    4.9      -2.86      0.7 
 Bq                    4.9      -2.86      0.8 
 Bq                    4.9      -2.86      0.9 
 Bq                    4.9      -2.86      1. 
 Bq                    4.9      -2.86      1.1 
 Bq                    4.9      -2.86      1.2 
 Bq                    4.9      -2.86      1.3 
 Bq                    4.9      -2.86      1.4 
 Bq                    4.9      -2.86      1.5 
 Bq                    4.9      -2.86      1.6 
 Bq                    4.9      -2.86      1.7 
 Bq                    4.9      -2.86      1.8 
 Bq                    4.9      -2.86      1.9 
 Bq                    4.9      -2.86      2. 
 Bq                    4.9      -2.76     -2. 
 Bq                    4.9      -2.76     -1.9 
 Bq                    4.9      -2.76     -1.8 
 Bq                    4.9      -2.76     -1.7 
 Bq                    4.9      -2.76     -1.6 
 Bq                    4.9      -2.76     -1.5 
 Bq                    4.9      -2.76     -1.4 
 Bq                    4.9      -2.76     -1.3 
 Bq                    4.9      -2.76     -1.2 
 Bq                    4.9      -2.76     -1.1 
 Bq                    4.9      -2.76     -1. 
 Bq                    4.9      -2.76     -0.9 
 Bq                    4.9      -2.76     -0.8 
 Bq                    4.9      -2.76     -0.7 
 Bq                    4.9      -2.76     -0.6 
 Bq                    4.9      -2.76     -0.5 
 Bq                    4.9      -2.76     -0.4 
 Bq                    4.9      -2.76     -0.3 
 Bq                    4.9      -2.76     -0.2 
 Bq                    4.9      -2.76     -0.1 
 Bq                    4.9      -2.76      0. 
 Bq                    4.9      -2.76      0.1 
 Bq                    4.9      -2.76      0.2 
 Bq                    4.9      -2.76      0.3 
 Bq                    4.9      -2.76      0.4 
 Bq                    4.9      -2.76      0.5 
 Bq                    4.9      -2.76      0.6 
 Bq                    4.9      -2.76      0.7 
 Bq                    4.9      -2.76      0.8 
 Bq                    4.9      -2.76      0.9 
 Bq                    4.9      -2.76      1. 
 Bq                    4.9      -2.76      1.1 
 Bq                    4.9      -2.76      1.2 
 Bq                    4.9      -2.76      1.3 
 Bq                    4.9      -2.76      1.4 
 Bq                    4.9      -2.76      1.5 
 Bq                    4.9      -2.76      1.6 
 Bq                    4.9      -2.76      1.7 
 Bq                    4.9      -2.76      1.8 
 Bq                    4.9      -2.76      1.9 
 Bq                    4.9      -2.76      2. 
 Bq                    4.9      -2.66     -2. 
 Bq                    4.9      -2.66     -1.9 
 Bq                    4.9      -2.66     -1.8 
 Bq                    4.9      -2.66     -1.7 
 Bq                    4.9      -2.66     -1.6 
 Bq                    4.9      -2.66     -1.5 
 Bq                    4.9      -2.66     -1.4 
 Bq                    4.9      -2.66     -1.3 
 Bq                    4.9      -2.66     -1.2 
 Bq                    4.9      -2.66     -1.1 
 Bq                    4.9      -2.66     -1. 
 Bq                    4.9      -2.66     -0.9 
 Bq                    4.9      -2.66     -0.8 
 Bq                    4.9      -2.66     -0.7 
 Bq                    4.9      -2.66     -0.6 
 Bq                    4.9      -2.66     -0.5 
 Bq                    4.9      -2.66     -0.4 
 Bq                    4.9      -2.66     -0.3 
 Bq                    4.9      -2.66     -0.2 
 Bq                    4.9      -2.66     -0.1 
 Bq                    4.9      -2.66      0. 
 Bq                    4.9      -2.66      0.1 
 Bq                    4.9      -2.66      0.2 
 Bq                    4.9      -2.66      0.3 
 Bq                    4.9      -2.66      0.4 
 Bq                    4.9      -2.66      0.5 
 Bq                    4.9      -2.66      0.6 
 Bq                    4.9      -2.66      0.7 
 Bq                    4.9      -2.66      0.8 
 Bq                    4.9      -2.66      0.9 
 Bq                    4.9      -2.66      1. 
 Bq                    4.9      -2.66      1.1 
 Bq                    4.9      -2.66      1.2 
 Bq                    4.9      -2.66      1.3 
 Bq                    4.9      -2.66      1.4 
 Bq                    4.9      -2.66      1.5 
 Bq                    4.9      -2.66      1.6 
 Bq                    4.9      -2.66      1.7 
 Bq                    4.9      -2.66      1.8 
 Bq                    4.9      -2.66      1.9 
 Bq                    4.9      -2.66      2. 
 Bq                    4.9      -2.56     -2. 
 Bq                    4.9      -2.56     -1.9 
 Bq                    4.9      -2.56     -1.8 
 Bq                    4.9      -2.56     -1.7 
 Bq                    4.9      -2.56     -1.6 
 Bq                    4.9      -2.56     -1.5 
 Bq                    4.9      -2.56     -1.4 
 Bq                    4.9      -2.56     -1.3 
 Bq                    4.9      -2.56     -1.2 
 Bq                    4.9      -2.56     -1.1 
 Bq                    4.9      -2.56     -1. 
 Bq                    4.9      -2.56     -0.9 
 Bq                    4.9      -2.56     -0.8 
 Bq                    4.9      -2.56     -0.7 
 Bq                    4.9      -2.56     -0.6 
 Bq                    4.9      -2.56     -0.5 
 Bq                    4.9      -2.56     -0.4 
 Bq                    4.9      -2.56     -0.3 
 Bq                    4.9      -2.56     -0.2 
 Bq                    4.9      -2.56     -0.1 
 Bq                    4.9      -2.56      0. 
 Bq                    4.9      -2.56      0.1 
 Bq                    4.9      -2.56      0.2 
 Bq                    4.9      -2.56      0.3 
 Bq                    4.9      -2.56      0.4 
 Bq                    4.9      -2.56      0.5 
 Bq                    4.9      -2.56      0.6 
 Bq                    4.9      -2.56      0.7 
 Bq                    4.9      -2.56      0.8 
 Bq                    4.9      -2.56      0.9 
 Bq                    4.9      -2.56      1. 
 Bq                    4.9      -2.56      1.1 
 Bq                    4.9      -2.56      1.2 
 Bq                    4.9      -2.56      1.3 
 Bq                    4.9      -2.56      1.4 
 Bq                    4.9      -2.56      1.5 
 Bq                    4.9      -2.56      1.6 
 Bq                    4.9      -2.56      1.7 
 Bq                    4.9      -2.56      1.8 
 Bq                    4.9      -2.56      1.9 
 Bq                    4.9      -2.56      2. 
 Bq                    4.9      -2.46     -2. 
 Bq                    4.9      -2.46     -1.9 
 Bq                    4.9      -2.46     -1.8 
 Bq                    4.9      -2.46     -1.7 
 Bq                    4.9      -2.46     -1.6 
 Bq                    4.9      -2.46     -1.5 
 Bq                    4.9      -2.46     -1.4 
 Bq                    4.9      -2.46     -1.3 
 Bq                    4.9      -2.46     -1.2 
 Bq                    4.9      -2.46     -1.1 
 Bq                    4.9      -2.46     -1. 
 Bq                    4.9      -2.46     -0.9 
 Bq                    4.9      -2.46     -0.8 
 Bq                    4.9      -2.46     -0.7 
 Bq                    4.9      -2.46     -0.6 
 Bq                    4.9      -2.46     -0.5 
 Bq                    4.9      -2.46     -0.4 
 Bq                    4.9      -2.46     -0.3 
 Bq                    4.9      -2.46     -0.2 
 Bq                    4.9      -2.46     -0.1 
 Bq                    4.9      -2.46      0. 
 Bq                    4.9      -2.46      0.1 
 Bq                    4.9      -2.46      0.2 
 Bq                    4.9      -2.46      0.3 
 Bq                    4.9      -2.46      0.4 
 Bq                    4.9      -2.46      0.5 
 Bq                    4.9      -2.46      0.6 
 Bq                    4.9      -2.46      0.7 
 Bq                    4.9      -2.46      0.8 
 Bq                    4.9      -2.46      0.9 
 Bq                    4.9      -2.46      1. 
 Bq                    4.9      -2.46      1.1 
 Bq                    4.9      -2.46      1.2 
 Bq                    4.9      -2.46      1.3 
 Bq                    4.9      -2.46      1.4 
 Bq                    4.9      -2.46      1.5 
 Bq                    4.9      -2.46      1.6 
 Bq                    4.9      -2.46      1.7 
 Bq                    4.9      -2.46      1.8 
 Bq                    4.9      -2.46      1.9 
 Bq                    4.9      -2.46      2. 
 Bq                    4.9      -2.36     -2. 
 Bq                    4.9      -2.36     -1.9 
 Bq                    4.9      -2.36     -1.8 
 Bq                    4.9      -2.36     -1.7 
 Bq                    4.9      -2.36     -1.6 
 Bq                    4.9      -2.36     -1.5 
 Bq                    4.9      -2.36     -1.4 
 Bq                    4.9      -2.36     -1.3 
 Bq                    4.9      -2.36     -1.2 
 Bq                    4.9      -2.36     -1.1 
 Bq                    4.9      -2.36     -1. 
 Bq                    4.9      -2.36     -0.9 
 Bq                    4.9      -2.36     -0.8 
 Bq                    4.9      -2.36     -0.7 
 Bq                    4.9      -2.36     -0.6 
 Bq                    4.9      -2.36     -0.5 
 Bq                    4.9      -2.36     -0.4 
 Bq                    4.9      -2.36     -0.3 
 Bq                    4.9      -2.36     -0.2 
 Bq                    4.9      -2.36     -0.1 
 Bq                    4.9      -2.36      0. 
 Bq                    4.9      -2.36      0.1 
 Bq                    4.9      -2.36      0.2 
 Bq                    4.9      -2.36      0.3 
 Bq                    4.9      -2.36      0.4 
 Bq                    4.9      -2.36      0.5 
 Bq                    4.9      -2.36      0.6 
 Bq                    4.9      -2.36      0.7 
 Bq                    4.9      -2.36      0.8 
 Bq                    4.9      -2.36      0.9 
 Bq                    4.9      -2.36      1. 
 Bq                    4.9      -2.36      1.1 
 Bq                    4.9      -2.36      1.2 
 Bq                    4.9      -2.36      1.3 
 Bq                    4.9      -2.36      1.4 
 Bq                    4.9      -2.36      1.5 
 Bq                    4.9      -2.36      1.6 
 Bq                    4.9      -2.36      1.7 
 Bq                    4.9      -2.36      1.8 
 Bq                    4.9      -2.36      1.9 
 Bq                    4.9      -2.36      2. 
 Bq                    4.9      -2.26     -2. 
 Bq                    4.9      -2.26     -1.9 
 Bq                    4.9      -2.26     -1.8 
 Bq                    4.9      -2.26     -1.7 
 Bq                    4.9      -2.26     -1.6 
 Bq                    4.9      -2.26     -1.5 
 Bq                    4.9      -2.26     -1.4 
 Bq                    4.9      -2.26     -1.3 
 Bq                    4.9      -2.26     -1.2 
 Bq                    4.9      -2.26     -1.1 
 Bq                    4.9      -2.26     -1. 
 Bq                    4.9      -2.26     -0.9 
 Bq                    4.9      -2.26     -0.8 
 Bq                    4.9      -2.26     -0.7 
 Bq                    4.9      -2.26     -0.6 
 Bq                    4.9      -2.26     -0.5 
 Bq                    4.9      -2.26     -0.4 
 Bq                    4.9      -2.26     -0.3 
 Bq                    4.9      -2.26     -0.2 
 Bq                    4.9      -2.26     -0.1 
 Bq                    4.9      -2.26      0. 
 Bq                    4.9      -2.26      0.1 
 Bq                    4.9      -2.26      0.2 
 Bq                    4.9      -2.26      0.3 
 Bq                    4.9      -2.26      0.4 
 Bq                    4.9      -2.26      0.5 
 Bq                    4.9      -2.26      0.6 
 Bq                    4.9      -2.26      0.7 
 Bq                    4.9      -2.26      0.8 
 Bq                    4.9      -2.26      0.9 
 Bq                    4.9      -2.26      1. 
 Bq                    4.9      -2.26      1.1 
 Bq                    4.9      -2.26      1.2 
 Bq                    4.9      -2.26      1.3 
 Bq                    4.9      -2.26      1.4 
 Bq                    4.9      -2.26      1.5 
 Bq                    4.9      -2.26      1.6 
 Bq                    4.9      -2.26      1.7 
 Bq                    4.9      -2.26      1.8 
 Bq                    4.9      -2.26      1.9 
 Bq                    4.9      -2.26      2. 
 Bq                    4.9      -2.16     -2. 
 Bq                    4.9      -2.16     -1.9 
 Bq                    4.9      -2.16     -1.8 
 Bq                    4.9      -2.16     -1.7 
 Bq                    4.9      -2.16     -1.6 
 Bq                    4.9      -2.16     -1.5 
 Bq                    4.9      -2.16     -1.4 
 Bq                    4.9      -2.16     -1.3 
 Bq                    4.9      -2.16     -1.2 
 Bq                    4.9      -2.16     -1.1 
 Bq                    4.9      -2.16     -1. 
 Bq                    4.9      -2.16     -0.9 
 Bq                    4.9      -2.16     -0.8 
 Bq                    4.9      -2.16     -0.7 
 Bq                    4.9      -2.16     -0.6 
 Bq                    4.9      -2.16     -0.5 
 Bq                    4.9      -2.16     -0.4 
 Bq                    4.9      -2.16     -0.3 
 Bq                    4.9      -2.16     -0.2 
 Bq                    4.9      -2.16     -0.1 
 Bq                    4.9      -2.16      0. 
 Bq                    4.9      -2.16      0.1 
 Bq                    4.9      -2.16      0.2 
 Bq                    4.9      -2.16      0.3 
 Bq                    4.9      -2.16      0.4 
 Bq                    4.9      -2.16      0.5 
 Bq                    4.9      -2.16      0.6 
 Bq                    4.9      -2.16      0.7 
 Bq                    4.9      -2.16      0.8 
 Bq                    4.9      -2.16      0.9 
 Bq                    4.9      -2.16      1. 
 Bq                    4.9      -2.16      1.1 
 Bq                    4.9      -2.16      1.2 
 Bq                    4.9      -2.16      1.3 
 Bq                    4.9      -2.16      1.4 
 Bq                    4.9      -2.16      1.5 
 Bq                    4.9      -2.16      1.6 
 Bq                    4.9      -2.16      1.7 
 Bq                    4.9      -2.16      1.8 
 Bq                    4.9      -2.16      1.9 
 Bq                    4.9      -2.16      2. 
 Bq                    4.9      -2.06     -2. 
 Bq                    4.9      -2.06     -1.9 
 Bq                    4.9      -2.06     -1.8 
 Bq                    4.9      -2.06     -1.7 
 Bq                    4.9      -2.06     -1.6 
 Bq                    4.9      -2.06     -1.5 
 Bq                    4.9      -2.06     -1.4 
 Bq                    4.9      -2.06     -1.3 
 Bq                    4.9      -2.06     -1.2 
 Bq                    4.9      -2.06     -1.1 
 Bq                    4.9      -2.06     -1. 
 Bq                    4.9      -2.06     -0.9 
 Bq                    4.9      -2.06     -0.8 
 Bq                    4.9      -2.06     -0.7 
 Bq                    4.9      -2.06     -0.6 
 Bq                    4.9      -2.06     -0.5 
 Bq                    4.9      -2.06     -0.4 
 Bq                    4.9      -2.06     -0.3 
 Bq                    4.9      -2.06     -0.2 
 Bq                    4.9      -2.06     -0.1 
 Bq                    4.9      -2.06      0. 
 Bq                    4.9      -2.06      0.1 
 Bq                    4.9      -2.06      0.2 
 Bq                    4.9      -2.06      0.3 
 Bq                    4.9      -2.06      0.4 
 Bq                    4.9      -2.06      0.5 
 Bq                    4.9      -2.06      0.6 
 Bq                    4.9      -2.06      0.7 
 Bq                    4.9      -2.06      0.8 
 Bq                    4.9      -2.06      0.9 
 Bq                    4.9      -2.06      1. 
 Bq                    4.9      -2.06      1.1 
 Bq                    4.9      -2.06      1.2 
 Bq                    4.9      -2.06      1.3 
 Bq                    4.9      -2.06      1.4 
 Bq                    4.9      -2.06      1.5 
 Bq                    4.9      -2.06      1.6 
 Bq                    4.9      -2.06      1.7 
 Bq                    4.9      -2.06      1.8 
 Bq                    4.9      -2.06      1.9 
 Bq                    4.9      -2.06      2. 
 Bq                    4.9      -1.96     -2. 
 Bq                    4.9      -1.96     -1.9 
 Bq                    4.9      -1.96     -1.8 
 Bq                    4.9      -1.96     -1.7 
 Bq                    4.9      -1.96     -1.6 
 Bq                    4.9      -1.96     -1.5 
 Bq                    4.9      -1.96     -1.4 
 Bq                    4.9      -1.96     -1.3 
 Bq                    4.9      -1.96     -1.2 
 Bq                    4.9      -1.96     -1.1 
 Bq                    4.9      -1.96     -1. 
 Bq                    4.9      -1.96     -0.9 
 Bq                    4.9      -1.96     -0.8 
 Bq                    4.9      -1.96     -0.7 
 Bq                    4.9      -1.96     -0.6 
 Bq                    4.9      -1.96     -0.5 
 Bq                    4.9      -1.96     -0.4 
 Bq                    4.9      -1.96     -0.3 
 Bq                    4.9      -1.96     -0.2 
 Bq                    4.9      -1.96     -0.1 
 Bq                    4.9      -1.96      0. 
 Bq                    4.9      -1.96      0.1 
 Bq                    4.9      -1.96      0.2 
 Bq                    4.9      -1.96      0.3 
 Bq                    4.9      -1.96      0.4 
 Bq                    4.9      -1.96      0.5 
 Bq                    4.9      -1.96      0.6 
 Bq                    4.9      -1.96      0.7 
 Bq                    4.9      -1.96      0.8 
 Bq                    4.9      -1.96      0.9 
 Bq                    4.9      -1.96      1. 
 Bq                    4.9      -1.96      1.1 
 Bq                    4.9      -1.96      1.2 
 Bq                    4.9      -1.96      1.3 
 Bq                    4.9      -1.96      1.4 
 Bq                    4.9      -1.96      1.5 
 Bq                    4.9      -1.96      1.6 
 Bq                    4.9      -1.96      1.7 
 Bq                    4.9      -1.96      1.8 
 Bq                    4.9      -1.96      1.9 
 Bq                    4.9      -1.96      2. 
 Bq                    4.9      -1.86     -2. 
 Bq                    4.9      -1.86     -1.9 
 Bq                    4.9      -1.86     -1.8 
 Bq                    4.9      -1.86     -1.7 
 Bq                    4.9      -1.86     -1.6 
 Bq                    4.9      -1.86     -1.5 
 Bq                    4.9      -1.86     -1.4 
 Bq                    4.9      -1.86     -1.3 
 Bq                    4.9      -1.86     -1.2 
 Bq                    4.9      -1.86     -1.1 
 Bq                    4.9      -1.86     -1. 
 Bq                    4.9      -1.86     -0.9 
 Bq                    4.9      -1.86     -0.8 
 Bq                    4.9      -1.86     -0.7 
 Bq                    4.9      -1.86     -0.6 
 Bq                    4.9      -1.86     -0.5 
 Bq                    4.9      -1.86     -0.4 
 Bq                    4.9      -1.86     -0.3 
 Bq                    4.9      -1.86     -0.2 
 Bq                    4.9      -1.86     -0.1 
 Bq                    4.9      -1.86      0. 
 Bq                    4.9      -1.86      0.1 
 Bq                    4.9      -1.86      0.2 
 Bq                    4.9      -1.86      0.3 
 Bq                    4.9      -1.86      0.4 
 Bq                    4.9      -1.86      0.5 
 Bq                    4.9      -1.86      0.6 
 Bq                    4.9      -1.86      0.7 
 Bq                    4.9      -1.86      0.8 
 Bq                    4.9      -1.86      0.9 
 Bq                    4.9      -1.86      1. 
 Bq                    4.9      -1.86      1.1 
 Bq                    4.9      -1.86      1.2 
 Bq                    4.9      -1.86      1.3 
 Bq                    4.9      -1.86      1.4 
 Bq                    4.9      -1.86      1.5 
 Bq                    4.9      -1.86      1.6 
 Bq                    4.9      -1.86      1.7 
 Bq                    4.9      -1.86      1.8 
 Bq                    4.9      -1.86      1.9 
 Bq                    4.9      -1.86      2. 
 Bq                    4.9      -1.76     -2. 
 Bq                    4.9      -1.76     -1.9 
 Bq                    4.9      -1.76     -1.8 
 Bq                    4.9      -1.76     -1.7 
 Bq                    4.9      -1.76     -1.6 
 Bq                    4.9      -1.76     -1.5 
 Bq                    4.9      -1.76     -1.4 
 Bq                    4.9      -1.76     -1.3 
 Bq                    4.9      -1.76     -1.2 
 Bq                    4.9      -1.76     -1.1 
 Bq                    4.9      -1.76     -1. 
 Bq                    4.9      -1.76     -0.9 
 Bq                    4.9      -1.76     -0.8 
 Bq                    4.9      -1.76     -0.7 
 Bq                    4.9      -1.76     -0.6 
 Bq                    4.9      -1.76     -0.5 
 Bq                    4.9      -1.76     -0.4 
 Bq                    4.9      -1.76     -0.3 
 Bq                    4.9      -1.76     -0.2 
 Bq                    4.9      -1.76     -0.1 
 Bq                    4.9      -1.76      0. 
 Bq                    4.9      -1.76      0.1 
 Bq                    4.9      -1.76      0.2 
 Bq                    4.9      -1.76      0.3 
 Bq                    4.9      -1.76      0.4 
 Bq                    4.9      -1.76      0.5 
 Bq                    4.9      -1.76      0.6 
 Bq                    4.9      -1.76      0.7 
 Bq                    4.9      -1.76      0.8 
 Bq                    4.9      -1.76      0.9 
 Bq                    4.9      -1.76      1. 
 Bq                    4.9      -1.76      1.1 
 Bq                    4.9      -1.76      1.2 
 Bq                    4.9      -1.76      1.3 
 Bq                    4.9      -1.76      1.4 
 Bq                    4.9      -1.76      1.5 
 Bq                    4.9      -1.76      1.6 
 Bq                    4.9      -1.76      1.7 
 Bq                    4.9      -1.76      1.8 
 Bq                    4.9      -1.76      1.9 
 Bq                    4.9      -1.76      2. 
 Bq                    4.9      -1.66     -2. 
 Bq                    4.9      -1.66     -1.9 
 Bq                    4.9      -1.66     -1.8 
 Bq                    4.9      -1.66     -1.7 
 Bq                    4.9      -1.66     -1.6 
 Bq                    4.9      -1.66     -1.5 
 Bq                    4.9      -1.66     -1.4 
 Bq                    4.9      -1.66     -1.3 
 Bq                    4.9      -1.66     -1.2 
 Bq                    4.9      -1.66     -1.1 
 Bq                    4.9      -1.66     -1. 
 Bq                    4.9      -1.66     -0.9 
 Bq                    4.9      -1.66     -0.8 
 Bq                    4.9      -1.66     -0.7 
 Bq                    4.9      -1.66     -0.6 
 Bq                    4.9      -1.66     -0.5 
 Bq                    4.9      -1.66     -0.4 
 Bq                    4.9      -1.66     -0.3 
 Bq                    4.9      -1.66     -0.2 
 Bq                    4.9      -1.66     -0.1 
 Bq                    4.9      -1.66      0. 
 Bq                    4.9      -1.66      0.1 
 Bq                    4.9      -1.66      0.2 
 Bq                    4.9      -1.66      0.3 
 Bq                    4.9      -1.66      0.4 
 Bq                    4.9      -1.66      0.5 
 Bq                    4.9      -1.66      0.6 
 Bq                    4.9      -1.66      0.7 
 Bq                    4.9      -1.66      0.8 
 Bq                    4.9      -1.66      0.9 
 Bq                    4.9      -1.66      1. 
 Bq                    4.9      -1.66      1.1 
 Bq                    4.9      -1.66      1.2 
 Bq                    4.9      -1.66      1.3 
 Bq                    4.9      -1.66      1.4 
 Bq                    4.9      -1.66      1.5 
 Bq                    4.9      -1.66      1.6 
 Bq                    4.9      -1.66      1.7 
 Bq                    4.9      -1.66      1.8 
 Bq                    4.9      -1.66      1.9 
 Bq                    4.9      -1.66      2. 
 Bq                    4.9      -1.56     -2. 
 Bq                    4.9      -1.56     -1.9 
 Bq                    4.9      -1.56     -1.8 
 Bq                    4.9      -1.56     -1.7 
 Bq                    4.9      -1.56     -1.6 
 Bq                    4.9      -1.56     -1.5 
 Bq                    4.9      -1.56     -1.4 
 Bq                    4.9      -1.56     -1.3 
 Bq                    4.9      -1.56     -1.2 
 Bq                    4.9      -1.56     -1.1 
 Bq                    4.9      -1.56     -1. 
 Bq                    4.9      -1.56     -0.9 
 Bq                    4.9      -1.56     -0.8 
 Bq                    4.9      -1.56     -0.7 
 Bq                    4.9      -1.56     -0.6 
 Bq                    4.9      -1.56     -0.5 
 Bq                    4.9      -1.56     -0.4 
 Bq                    4.9      -1.56     -0.3 
 Bq                    4.9      -1.56     -0.2 
 Bq                    4.9      -1.56     -0.1 
 Bq                    4.9      -1.56      0. 
 Bq                    4.9      -1.56      0.1 
 Bq                    4.9      -1.56      0.2 
 Bq                    4.9      -1.56      0.3 
 Bq                    4.9      -1.56      0.4 
 Bq                    4.9      -1.56      0.5 
 Bq                    4.9      -1.56      0.6 
 Bq                    4.9      -1.56      0.7 
 Bq                    4.9      -1.56      0.8 
 Bq                    4.9      -1.56      0.9 
 Bq                    4.9      -1.56      1. 
 Bq                    4.9      -1.56      1.1 
 Bq                    4.9      -1.56      1.2 
 Bq                    4.9      -1.56      1.3 
 Bq                    4.9      -1.56      1.4 
 Bq                    4.9      -1.56      1.5 
 Bq                    4.9      -1.56      1.6 
 Bq                    4.9      -1.56      1.7 
 Bq                    4.9      -1.56      1.8 
 Bq                    4.9      -1.56      1.9 
 Bq                    4.9      -1.56      2. 
 Bq                    4.9      -1.46     -2. 
 Bq                    4.9      -1.46     -1.9 
 Bq                    4.9      -1.46     -1.8 
 Bq                    4.9      -1.46     -1.7 
 Bq                    4.9      -1.46     -1.6 
 Bq                    4.9      -1.46     -1.5 
 Bq                    4.9      -1.46     -1.4 
 Bq                    4.9      -1.46     -1.3 
 Bq                    4.9      -1.46     -1.2 
 Bq                    4.9      -1.46     -1.1 
 Bq                    4.9      -1.46     -1. 
 Bq                    4.9      -1.46     -0.9 
 Bq                    4.9      -1.46     -0.8 
 Bq                    4.9      -1.46     -0.7 
 Bq                    4.9      -1.46     -0.6 
 Bq                    4.9      -1.46     -0.5 
 Bq                    4.9      -1.46     -0.4 
 Bq                    4.9      -1.46     -0.3 
 Bq                    4.9      -1.46     -0.2 
 Bq                    4.9      -1.46     -0.1 
 Bq                    4.9      -1.46      0. 
 Bq                    4.9      -1.46      0.1 
 Bq                    4.9      -1.46      0.2 
 Bq                    4.9      -1.46      0.3 
 Bq                    4.9      -1.46      0.4 
 Bq                    4.9      -1.46      0.5 
 Bq                    4.9      -1.46      0.6 
 Bq                    4.9      -1.46      0.7 
 Bq                    4.9      -1.46      0.8 
 Bq                    4.9      -1.46      0.9 
 Bq                    4.9      -1.46      1. 
 Bq                    4.9      -1.46      1.1 
 Bq                    4.9      -1.46      1.2 
 Bq                    4.9      -1.46      1.3 
 Bq                    4.9      -1.46      1.4 
 Bq                    4.9      -1.46      1.5 
 Bq                    4.9      -1.46      1.6 
 Bq                    4.9      -1.46      1.7 
 Bq                    4.9      -1.46      1.8 
 Bq                    4.9      -1.46      1.9 
 Bq                    4.9      -1.46      2. 
 Bq                    4.9      -1.36     -2. 
 Bq                    4.9      -1.36     -1.9 
 Bq                    4.9      -1.36     -1.8 
 Bq                    4.9      -1.36     -1.7 
 Bq                    4.9      -1.36     -1.6 
 Bq                    4.9      -1.36     -1.5 
 Bq                    4.9      -1.36     -1.4 
 Bq                    4.9      -1.36     -1.3 
 Bq                    4.9      -1.36     -1.2 
 Bq                    4.9      -1.36     -1.1 
 Bq                    4.9      -1.36     -1. 
 Bq                    4.9      -1.36     -0.9 
 Bq                    4.9      -1.36     -0.8 
 Bq                    4.9      -1.36     -0.7 
 Bq                    4.9      -1.36     -0.6 
 Bq                    4.9      -1.36     -0.5 
 Bq                    4.9      -1.36     -0.4 
 Bq                    4.9      -1.36     -0.3 
 Bq                    4.9      -1.36     -0.2 
 Bq                    4.9      -1.36     -0.1 
 Bq                    4.9      -1.36      0. 
 Bq                    4.9      -1.36      0.1 
 Bq                    4.9      -1.36      0.2 
 Bq                    4.9      -1.36      0.3 
 Bq                    4.9      -1.36      0.4 
 Bq                    4.9      -1.36      0.5 
 Bq                    4.9      -1.36      0.6 
 Bq                    4.9      -1.36      0.7 
 Bq                    4.9      -1.36      0.8 
 Bq                    4.9      -1.36      0.9 
 Bq                    4.9      -1.36      1. 
 Bq                    4.9      -1.36      1.1 
 Bq                    4.9      -1.36      1.2 
 Bq                    4.9      -1.36      1.3 
 Bq                    4.9      -1.36      1.4 
 Bq                    4.9      -1.36      1.5 
 Bq                    4.9      -1.36      1.6 
 Bq                    4.9      -1.36      1.7 
 Bq                    4.9      -1.36      1.8 
 Bq                    4.9      -1.36      1.9 
 Bq                    4.9      -1.36      2. 
 Bq                    4.9      -1.26     -2. 
 Bq                    4.9      -1.26     -1.9 
 Bq                    4.9      -1.26     -1.8 
 Bq                    4.9      -1.26     -1.7 
 Bq                    4.9      -1.26     -1.6 
 Bq                    4.9      -1.26     -1.5 
 Bq                    4.9      -1.26     -1.4 
 Bq                    4.9      -1.26     -1.3 
 Bq                    4.9      -1.26     -1.2 
 Bq                    4.9      -1.26     -1.1 
 Bq                    4.9      -1.26     -1. 
 Bq                    4.9      -1.26     -0.9 
 Bq                    4.9      -1.26     -0.8 
 Bq                    4.9      -1.26     -0.7 
 Bq                    4.9      -1.26     -0.6 
 Bq                    4.9      -1.26     -0.5 
 Bq                    4.9      -1.26     -0.4 
 Bq                    4.9      -1.26     -0.3 
 Bq                    4.9      -1.26     -0.2 
 Bq                    4.9      -1.26     -0.1 
 Bq                    4.9      -1.26      0. 
 Bq                    4.9      -1.26      0.1 
 Bq                    4.9      -1.26      0.2 
 Bq                    4.9      -1.26      0.3 
 Bq                    4.9      -1.26      0.4 
 Bq                    4.9      -1.26      0.5 
 Bq                    4.9      -1.26      0.6 
 Bq                    4.9      -1.26      0.7 
 Bq                    4.9      -1.26      0.8 
 Bq                    4.9      -1.26      0.9 
 Bq                    4.9      -1.26      1. 
 Bq                    4.9      -1.26      1.1 
 Bq                    4.9      -1.26      1.2 
 Bq                    4.9      -1.26      1.3 
 Bq                    4.9      -1.26      1.4 
 Bq                    4.9      -1.26      1.5 
 Bq                    4.9      -1.26      1.6 
 Bq                    4.9      -1.26      1.7 
 Bq                    4.9      -1.26      1.8 
 Bq                    4.9      -1.26      1.9 
 Bq                    4.9      -1.26      2. 
 Bq                    4.9      -1.16     -2. 
 Bq                    4.9      -1.16     -1.9 
 Bq                    4.9      -1.16     -1.8 
 Bq                    4.9      -1.16     -1.7 
 Bq                    4.9      -1.16     -1.6 
 Bq                    4.9      -1.16     -1.5 
 Bq                    4.9      -1.16     -1.4 
 Bq                    4.9      -1.16     -1.3 
 Bq                    4.9      -1.16     -1.2 
 Bq                    4.9      -1.16     -1.1 
 Bq                    4.9      -1.16     -1. 
 Bq                    4.9      -1.16     -0.9 
 Bq                    4.9      -1.16     -0.8 
 Bq                    4.9      -1.16     -0.7 
 Bq                    4.9      -1.16     -0.6 
 Bq                    4.9      -1.16     -0.5 
 Bq                    4.9      -1.16     -0.4 
 Bq                    4.9      -1.16     -0.3 
 Bq                    4.9      -1.16     -0.2 
 Bq                    4.9      -1.16     -0.1 
 Bq                    4.9      -1.16      0. 
 Bq                    4.9      -1.16      0.1 
 Bq                    4.9      -1.16      0.2 
 Bq                    4.9      -1.16      0.3 
 Bq                    4.9      -1.16      0.4 
 Bq                    4.9      -1.16      0.5 
 Bq                    4.9      -1.16      0.6 
 Bq                    4.9      -1.16      0.7 
 Bq                    4.9      -1.16      0.8 
 Bq                    4.9      -1.16      0.9 
 Bq                    4.9      -1.16      1. 
 Bq                    4.9      -1.16      1.1 
 Bq                    4.9      -1.16      1.2 
 Bq                    4.9      -1.16      1.3 
 Bq                    4.9      -1.16      1.4 
 Bq                    4.9      -1.16      1.5 
 Bq                    4.9      -1.16      1.6 
 Bq                    4.9      -1.16      1.7 
 Bq                    4.9      -1.16      1.8 
 Bq                    4.9      -1.16      1.9 
 Bq                    4.9      -1.16      2. 
 Bq                    4.9      -1.06     -2. 
 Bq                    4.9      -1.06     -1.9 
 Bq                    4.9      -1.06     -1.8 
 Bq                    4.9      -1.06     -1.7 
 Bq                    4.9      -1.06     -1.6 
 Bq                    4.9      -1.06     -1.5 
 Bq                    4.9      -1.06     -1.4 
 Bq                    4.9      -1.06     -1.3 
 Bq                    4.9      -1.06     -1.2 
 Bq                    4.9      -1.06     -1.1 
 Bq                    4.9      -1.06     -1. 
 Bq                    4.9      -1.06     -0.9 
 Bq                    4.9      -1.06     -0.8 
 Bq                    4.9      -1.06     -0.7 
 Bq                    4.9      -1.06     -0.6 
 Bq                    4.9      -1.06     -0.5 
 Bq                    4.9      -1.06     -0.4 
 Bq                    4.9      -1.06     -0.3 
 Bq                    4.9      -1.06     -0.2 
 Bq                    4.9      -1.06     -0.1 
 Bq                    4.9      -1.06      0. 
 Bq                    4.9      -1.06      0.1 
 Bq                    4.9      -1.06      0.2 
 Bq                    4.9      -1.06      0.3 
 Bq                    4.9      -1.06      0.4 
 Bq                    4.9      -1.06      0.5 
 Bq                    4.9      -1.06      0.6 
 Bq                    4.9      -1.06      0.7 
 Bq                    4.9      -1.06      0.8 
 Bq                    4.9      -1.06      0.9 
 Bq                    4.9      -1.06      1. 
 Bq                    4.9      -1.06      1.1 
 Bq                    4.9      -1.06      1.2 
 Bq                    4.9      -1.06      1.3 
 Bq                    4.9      -1.06      1.4 
 Bq                    4.9      -1.06      1.5 
 Bq                    4.9      -1.06      1.6 
 Bq                    4.9      -1.06      1.7 
 Bq                    4.9      -1.06      1.8 
 Bq                    4.9      -1.06      1.9 
 Bq                    4.9      -1.06      2. 
 Bq                    4.9      -0.96     -2. 
 Bq                    4.9      -0.96     -1.9 
 Bq                    4.9      -0.96     -1.8 
 Bq                    4.9      -0.96     -1.7 
 Bq                    4.9      -0.96     -1.6 
 Bq                    4.9      -0.96     -1.5 
 Bq                    4.9      -0.96     -1.4 
 Bq                    4.9      -0.96     -1.3 
 Bq                    4.9      -0.96     -1.2 
 Bq                    4.9      -0.96     -1.1 
 Bq                    4.9      -0.96     -1. 
 Bq                    4.9      -0.96     -0.9 
 Bq                    4.9      -0.96     -0.8 
 Bq                    4.9      -0.96     -0.7 
 Bq                    4.9      -0.96     -0.6 
 Bq                    4.9      -0.96     -0.5 
 Bq                    4.9      -0.96     -0.4 
 Bq                    4.9      -0.96     -0.3 
 Bq                    4.9      -0.96     -0.2 
 Bq                    4.9      -0.96     -0.1 
 Bq                    4.9      -0.96      0. 
 Bq                    4.9      -0.96      0.1 
 Bq                    4.9      -0.96      0.2 
 Bq                    4.9      -0.96      0.3 
 Bq                    4.9      -0.96      0.4 
 Bq                    4.9      -0.96      0.5 
 Bq                    4.9      -0.96      0.6 
 Bq                    4.9      -0.96      0.7 
 Bq                    4.9      -0.96      0.8 
 Bq                    4.9      -0.96      0.9 
 Bq                    4.9      -0.96      1. 
 Bq                    4.9      -0.96      1.1 
 Bq                    4.9      -0.96      1.2 
 Bq                    4.9      -0.96      1.3 
 Bq                    4.9      -0.96      1.4 
 Bq                    4.9      -0.96      1.5 
 Bq                    4.9      -0.96      1.6 
 Bq                    4.9      -0.96      1.7 
 Bq                    4.9      -0.96      1.8 
 Bq                    4.9      -0.96      1.9 
 Bq                    4.9      -0.96      2. 
 Bq                    4.9      -0.86     -2. 
 Bq                    4.9      -0.86     -1.9 
 Bq                    4.9      -0.86     -1.8 
 Bq                    4.9      -0.86     -1.7 
 Bq                    4.9      -0.86     -1.6 
 Bq                    4.9      -0.86     -1.5 
 Bq                    4.9      -0.86     -1.4 
 Bq                    4.9      -0.86     -1.3 
 Bq                    4.9      -0.86     -1.2 
 Bq                    4.9      -0.86     -1.1 
 Bq                    4.9      -0.86     -1. 
 Bq                    4.9      -0.86     -0.9 
 Bq                    4.9      -0.86     -0.8 
 Bq                    4.9      -0.86     -0.7 
 Bq                    4.9      -0.86     -0.6 
 Bq                    4.9      -0.86     -0.5 
 Bq                    4.9      -0.86     -0.4 
 Bq                    4.9      -0.86     -0.3 
 Bq                    4.9      -0.86     -0.2 
 Bq                    4.9      -0.86     -0.1 
 Bq                    4.9      -0.86      0. 
 Bq                    4.9      -0.86      0.1 
 Bq                    4.9      -0.86      0.2 
 Bq                    4.9      -0.86      0.3 
 Bq                    4.9      -0.86      0.4 
 Bq                    4.9      -0.86      0.5 
 Bq                    4.9      -0.86      0.6 
 Bq                    4.9      -0.86      0.7 
 Bq                    4.9      -0.86      0.8 
 Bq                    4.9      -0.86      0.9 
 Bq                    4.9      -0.86      1. 
 Bq                    4.9      -0.86      1.1 
 Bq                    4.9      -0.86      1.2 
 Bq                    4.9      -0.86      1.3 
 Bq                    4.9      -0.86      1.4 
 Bq                    4.9      -0.86      1.5 
 Bq                    4.9      -0.86      1.6 
 Bq                    4.9      -0.86      1.7 
 Bq                    4.9      -0.86      1.8 
 Bq                    4.9      -0.86      1.9 
 Bq                    4.9      -0.86      2. 
 Bq                    4.9      -0.76     -2. 
 Bq                    4.9      -0.76     -1.9 
 Bq                    4.9      -0.76     -1.8 
 Bq                    4.9      -0.76     -1.7 
 Bq                    4.9      -0.76     -1.6 
 Bq                    4.9      -0.76     -1.5 
 Bq                    4.9      -0.76     -1.4 
 Bq                    4.9      -0.76     -1.3 
 Bq                    4.9      -0.76     -1.2 
 Bq                    4.9      -0.76     -1.1 
 Bq                    4.9      -0.76     -1. 
 Bq                    4.9      -0.76     -0.9 
 Bq                    4.9      -0.76     -0.8 
 Bq                    4.9      -0.76     -0.7 
 Bq                    4.9      -0.76     -0.6 
 Bq                    4.9      -0.76     -0.5 
 Bq                    4.9      -0.76     -0.4 
 Bq                    4.9      -0.76     -0.3 
 Bq                    4.9      -0.76     -0.2 
 Bq                    4.9      -0.76     -0.1 
 Bq                    4.9      -0.76      0. 
 Bq                    4.9      -0.76      0.1 
 Bq                    4.9      -0.76      0.2 
 Bq                    4.9      -0.76      0.3 
 Bq                    4.9      -0.76      0.4 
 Bq                    4.9      -0.76      0.5 
 Bq                    4.9      -0.76      0.6 
 Bq                    4.9      -0.76      0.7 
 Bq                    4.9      -0.76      0.8 
 Bq                    4.9      -0.76      0.9 
 Bq                    4.9      -0.76      1. 
 Bq                    4.9      -0.76      1.1 
 Bq                    4.9      -0.76      1.2 
 Bq                    4.9      -0.76      1.3 
 Bq                    4.9      -0.76      1.4 
 Bq                    4.9      -0.76      1.5 
 Bq                    4.9      -0.76      1.6 
 Bq                    4.9      -0.76      1.7 
 Bq                    4.9      -0.76      1.8 
 Bq                    4.9      -0.76      1.9 
 Bq                    4.9      -0.76      2. 
 Bq                    4.9      -0.66     -2. 
 Bq                    4.9      -0.66     -1.9 
 Bq                    4.9      -0.66     -1.8 
 Bq                    4.9      -0.66     -1.7 
 Bq                    4.9      -0.66     -1.6 
 Bq                    4.9      -0.66     -1.5 
 Bq                    4.9      -0.66     -1.4 
 Bq                    4.9      -0.66     -1.3 
 Bq                    4.9      -0.66     -1.2 
 Bq                    4.9      -0.66     -1.1 
 Bq                    4.9      -0.66     -1. 
 Bq                    4.9      -0.66     -0.9 
 Bq                    4.9      -0.66     -0.8 
 Bq                    4.9      -0.66     -0.7 
 Bq                    4.9      -0.66     -0.6 
 Bq                    4.9      -0.66     -0.5 
 Bq                    4.9      -0.66     -0.4 
 Bq                    4.9      -0.66     -0.3 
 Bq                    4.9      -0.66     -0.2 
 Bq                    4.9      -0.66     -0.1 
 Bq                    4.9      -0.66      0. 
 Bq                    4.9      -0.66      0.1 
 Bq                    4.9      -0.66      0.2 
 Bq                    4.9      -0.66      0.3 
 Bq                    4.9      -0.66      0.4 
 Bq                    4.9      -0.66      0.5 
 Bq                    4.9      -0.66      0.6 
 Bq                    4.9      -0.66      0.7 
 Bq                    4.9      -0.66      0.8 
 Bq                    4.9      -0.66      0.9 
 Bq                    4.9      -0.66      1. 
 Bq                    4.9      -0.66      1.1 
 Bq                    4.9      -0.66      1.2 
 Bq                    4.9      -0.66      1.3 
 Bq                    4.9      -0.66      1.4 
 Bq                    4.9      -0.66      1.5 
 Bq                    4.9      -0.66      1.6 
 Bq                    4.9      -0.66      1.7 
 Bq                    4.9      -0.66      1.8 
 Bq                    4.9      -0.66      1.9 
 Bq                    4.9      -0.66      2. 
 Bq                    4.9      -0.56     -2. 
 Bq                    4.9      -0.56     -1.9 
 Bq                    4.9      -0.56     -1.8 
 Bq                    4.9      -0.56     -1.7 
 Bq                    4.9      -0.56     -1.6 
 Bq                    4.9      -0.56     -1.5 
 Bq                    4.9      -0.56     -1.4 
 Bq                    4.9      -0.56     -1.3 
 Bq                    4.9      -0.56     -1.2 
 Bq                    4.9      -0.56     -1.1 
 Bq                    4.9      -0.56     -1. 
 Bq                    4.9      -0.56     -0.9 
 Bq                    4.9      -0.56     -0.8 
 Bq                    4.9      -0.56     -0.7 
 Bq                    4.9      -0.56     -0.6 
 Bq                    4.9      -0.56     -0.5 
 Bq                    4.9      -0.56     -0.4 
 Bq                    4.9      -0.56     -0.3 
 Bq                    4.9      -0.56     -0.2 
 Bq                    4.9      -0.56     -0.1 
 Bq                    4.9      -0.56      0. 
 Bq                    4.9      -0.56      0.1 
 Bq                    4.9      -0.56      0.2 
 Bq                    4.9      -0.56      0.3 
 Bq                    4.9      -0.56      0.4 
 Bq                    4.9      -0.56      0.5 
 Bq                    4.9      -0.56      0.6 
 Bq                    4.9      -0.56      0.7 
 Bq                    4.9      -0.56      0.8 
 Bq                    4.9      -0.56      0.9 
 Bq                    4.9      -0.56      1. 
 Bq                    4.9      -0.56      1.1 
 Bq                    4.9      -0.56      1.2 
 Bq                    4.9      -0.56      1.3 
 Bq                    4.9      -0.56      1.4 
 Bq                    4.9      -0.56      1.5 
 Bq                    4.9      -0.56      1.6 
 Bq                    4.9      -0.56      1.7 
 Bq                    4.9      -0.56      1.8 
 Bq                    4.9      -0.56      1.9 
 Bq                    4.9      -0.56      2. 
 Bq                    4.9      -0.46     -2. 
 Bq                    4.9      -0.46     -1.9 
 Bq                    4.9      -0.46     -1.8 
 Bq                    4.9      -0.46     -1.7 
 Bq                    4.9      -0.46     -1.6 
 Bq                    4.9      -0.46     -1.5 
 Bq                    4.9      -0.46     -1.4 
 Bq                    4.9      -0.46     -1.3 
 Bq                    4.9      -0.46     -1.2 
 Bq                    4.9      -0.46     -1.1 
 Bq                    4.9      -0.46     -1. 
 Bq                    4.9      -0.46     -0.9 
 Bq                    4.9      -0.46     -0.8 
 Bq                    4.9      -0.46     -0.7 
 Bq                    4.9      -0.46     -0.6 
 Bq                    4.9      -0.46     -0.5 
 Bq                    4.9      -0.46     -0.4 
 Bq                    4.9      -0.46     -0.3 
 Bq                    4.9      -0.46     -0.2 
 Bq                    4.9      -0.46     -0.1 
 Bq                    4.9      -0.46      0. 
 Bq                    4.9      -0.46      0.1 
 Bq                    4.9      -0.46      0.2 
 Bq                    4.9      -0.46      0.3 
 Bq                    4.9      -0.46      0.4 
 Bq                    4.9      -0.46      0.5 
 Bq                    4.9      -0.46      0.6 
 Bq                    4.9      -0.46      0.7 
 Bq                    4.9      -0.46      0.8 
 Bq                    4.9      -0.46      0.9 
 Bq                    4.9      -0.46      1. 
 Bq                    4.9      -0.46      1.1 
 Bq                    4.9      -0.46      1.2 
 Bq                    4.9      -0.46      1.3 
 Bq                    4.9      -0.46      1.4 
 Bq                    4.9      -0.46      1.5 
 Bq                    4.9      -0.46      1.6 
 Bq                    4.9      -0.46      1.7 
 Bq                    4.9      -0.46      1.8 
 Bq                    4.9      -0.46      1.9 
 Bq                    4.9      -0.46      2. 
 Bq                    4.9      -0.36     -2. 
 Bq                    4.9      -0.36     -1.9 
 Bq                    4.9      -0.36     -1.8 
 Bq                    4.9      -0.36     -1.7 
 Bq                    4.9      -0.36     -1.6 
 Bq                    4.9      -0.36     -1.5 
 Bq                    4.9      -0.36     -1.4 
 Bq                    4.9      -0.36     -1.3 
 Bq                    4.9      -0.36     -1.2 
 Bq                    4.9      -0.36     -1.1 
 Bq                    4.9      -0.36     -1. 
 Bq                    4.9      -0.36     -0.9 
 Bq                    4.9      -0.36     -0.8 
 Bq                    4.9      -0.36     -0.7 
 Bq                    4.9      -0.36     -0.6 
 Bq                    4.9      -0.36     -0.5 
 Bq                    4.9      -0.36     -0.4 
 Bq                    4.9      -0.36     -0.3 
 Bq                    4.9      -0.36     -0.2 
 Bq                    4.9      -0.36     -0.1 
 Bq                    4.9      -0.36      0. 
 Bq                    4.9      -0.36      0.1 
 Bq                    4.9      -0.36      0.2 
 Bq                    4.9      -0.36      0.3 
 Bq                    4.9      -0.36      0.4 
 Bq                    4.9      -0.36      0.5 
 Bq                    4.9      -0.36      0.6 
 Bq                    4.9      -0.36      0.7 
 Bq                    4.9      -0.36      0.8 
 Bq                    4.9      -0.36      0.9 
 Bq                    4.9      -0.36      1. 
 Bq                    4.9      -0.36      1.1 
 Bq                    4.9      -0.36      1.2 
 Bq                    4.9      -0.36      1.3 
 Bq                    4.9      -0.36      1.4 
 Bq                    4.9      -0.36      1.5 
 Bq                    4.9      -0.36      1.6 
 Bq                    4.9      -0.36      1.7 
 Bq                    4.9      -0.36      1.8 
 Bq                    4.9      -0.36      1.9 
 Bq                    4.9      -0.36      2. 
 Bq                    4.9      -0.26     -2. 
 Bq                    4.9      -0.26     -1.9 
 Bq                    4.9      -0.26     -1.8 
 Bq                    4.9      -0.26     -1.7 
 Bq                    4.9      -0.26     -1.6 
 Bq                    4.9      -0.26     -1.5 
 Bq                    4.9      -0.26     -1.4 
 Bq                    4.9      -0.26     -1.3 
 Bq                    4.9      -0.26     -1.2 
 Bq                    4.9      -0.26     -1.1 
 Bq                    4.9      -0.26     -1. 
 Bq                    4.9      -0.26     -0.9 
 Bq                    4.9      -0.26     -0.8 
 Bq                    4.9      -0.26     -0.7 
 Bq                    4.9      -0.26     -0.6 
 Bq                    4.9      -0.26     -0.5 
 Bq                    4.9      -0.26     -0.4 
 Bq                    4.9      -0.26     -0.3 
 Bq                    4.9      -0.26     -0.2 
 Bq                    4.9      -0.26     -0.1 
 Bq                    4.9      -0.26      0. 
 Bq                    4.9      -0.26      0.1 
 Bq                    4.9      -0.26      0.2 
 Bq                    4.9      -0.26      0.3 
 Bq                    4.9      -0.26      0.4 
 Bq                    4.9      -0.26      0.5 
 Bq                    4.9      -0.26      0.6 
 Bq                    4.9      -0.26      0.7 
 Bq                    4.9      -0.26      0.8 
 Bq                    4.9      -0.26      0.9 
 Bq                    4.9      -0.26      1. 
 Bq                    4.9      -0.26      1.1 
 Bq                    4.9      -0.26      1.2 
 Bq                    4.9      -0.26      1.3 
 Bq                    4.9      -0.26      1.4 
 Bq                    4.9      -0.26      1.5 
 Bq                    4.9      -0.26      1.6 
 Bq                    4.9      -0.26      1.7 
 Bq                    4.9      -0.26      1.8 
 Bq                    4.9      -0.26      1.9 
 Bq                    4.9      -0.26      2. 
 Bq                    4.9      -0.16     -2. 
 Bq                    4.9      -0.16     -1.9 
 Bq                    4.9      -0.16     -1.8 
 Bq                    4.9      -0.16     -1.7 
 Bq                    4.9      -0.16     -1.6 
 Bq                    4.9      -0.16     -1.5 
 Bq                    4.9      -0.16     -1.4 
 Bq                    4.9      -0.16     -1.3 
 Bq                    4.9      -0.16     -1.2 
 Bq                    4.9      -0.16     -1.1 
 Bq                    4.9      -0.16     -1. 
 Bq                    4.9      -0.16     -0.9 
 Bq                    4.9      -0.16     -0.8 
 Bq                    4.9      -0.16     -0.7 
 Bq                    4.9      -0.16     -0.6 
 Bq                    4.9      -0.16     -0.5 
 Bq                    4.9      -0.16     -0.4 
 Bq                    4.9      -0.16     -0.3 
 Bq                    4.9      -0.16     -0.2 
 Bq                    4.9      -0.16     -0.1 
 Bq                    4.9      -0.16      0. 
 Bq                    4.9      -0.16      0.1 
 Bq                    4.9      -0.16      0.2 
 Bq                    4.9      -0.16      0.3 
 Bq                    4.9      -0.16      0.4 
 Bq                    4.9      -0.16      0.5 
 Bq                    4.9      -0.16      0.6 
 Bq                    4.9      -0.16      0.7 
 Bq                    4.9      -0.16      0.8 
 Bq                    4.9      -0.16      0.9 
 Bq                    4.9      -0.16      1. 
 Bq                    4.9      -0.16      1.1 
 Bq                    4.9      -0.16      1.2 
 Bq                    4.9      -0.16      1.3 
 Bq                    4.9      -0.16      1.4 
 Bq                    4.9      -0.16      1.5 
 Bq                    4.9      -0.16      1.6 
 Bq                    4.9      -0.16      1.7 
 Bq                    4.9      -0.16      1.8 
 Bq                    4.9      -0.16      1.9 
 Bq                    4.9      -0.16      2. 
 Bq                    4.9      -0.06     -2. 
 Bq                    4.9      -0.06     -1.9 
 Bq                    4.9      -0.06     -1.8 
 Bq                    4.9      -0.06     -1.7 
 Bq                    4.9      -0.06     -1.6 
 Bq                    4.9      -0.06     -1.5 
 Bq                    4.9      -0.06     -1.4 
 Bq                    4.9      -0.06     -1.3 
 Bq                    4.9      -0.06     -1.2 
 Bq                    4.9      -0.06     -1.1 
 Bq                    4.9      -0.06     -1. 
 Bq                    4.9      -0.06     -0.9 
 Bq                    4.9      -0.06     -0.8 
 Bq                    4.9      -0.06     -0.7 
 Bq                    4.9      -0.06     -0.6 
 Bq                    4.9      -0.06     -0.5 
 Bq                    4.9      -0.06     -0.4 
 Bq                    4.9      -0.06     -0.3 
 Bq                    4.9      -0.06     -0.2 
 Bq                    4.9      -0.06     -0.1 
 Bq                    4.9      -0.06      0. 
 Bq                    4.9      -0.06      0.1 
 Bq                    4.9      -0.06      0.2 
 Bq                    4.9      -0.06      0.3 
 Bq                    4.9      -0.06      0.4 
 Bq                    4.9      -0.06      0.5 
 Bq                    4.9      -0.06      0.6 
 Bq                    4.9      -0.06      0.7 
 Bq                    4.9      -0.06      0.8 
 Bq                    4.9      -0.06      0.9 
 Bq                    4.9      -0.06      1. 
 Bq                    4.9      -0.06      1.1 
 Bq                    4.9      -0.06      1.2 
 Bq                    4.9      -0.06      1.3 
 Bq                    4.9      -0.06      1.4 
 Bq                    4.9      -0.06      1.5 
 Bq                    4.9      -0.06      1.6 
 Bq                    4.9      -0.06      1.7 
 Bq                    4.9      -0.06      1.8 
 Bq                    4.9      -0.06      1.9 
 Bq                    4.9      -0.06      2. 
 Bq                    4.9       0.04     -2. 
 Bq                    4.9       0.04     -1.9 
 Bq                    4.9       0.04     -1.8 
 Bq                    4.9       0.04     -1.7 
 Bq                    4.9       0.04     -1.6 
 Bq                    4.9       0.04     -1.5 
 Bq                    4.9       0.04     -1.4 
 Bq                    4.9       0.04     -1.3 
 Bq                    4.9       0.04     -1.2 
 Bq                    4.9       0.04     -1.1 
 Bq                    4.9       0.04     -1. 
 Bq                    4.9       0.04     -0.9 
 Bq                    4.9       0.04     -0.8 
 Bq                    4.9       0.04     -0.7 
 Bq                    4.9       0.04     -0.6 
 Bq                    4.9       0.04     -0.5 
 Bq                    4.9       0.04     -0.4 
 Bq                    4.9       0.04     -0.3 
 Bq                    4.9       0.04     -0.2 
 Bq                    4.9       0.04     -0.1 
 Bq                    4.9       0.04      0. 
 Bq                    4.9       0.04      0.1 
 Bq                    4.9       0.04      0.2 
 Bq                    4.9       0.04      0.3 
 Bq                    4.9       0.04      0.4 
 Bq                    4.9       0.04      0.5 
 Bq                    4.9       0.04      0.6 
 Bq                    4.9       0.04      0.7 
 Bq                    4.9       0.04      0.8 
 Bq                    4.9       0.04      0.9 
 Bq                    4.9       0.04      1. 
 Bq                    4.9       0.04      1.1 
 Bq                    4.9       0.04      1.2 
 Bq                    4.9       0.04      1.3 
 Bq                    4.9       0.04      1.4 
 Bq                    4.9       0.04      1.5 
 Bq                    4.9       0.04      1.6 
 Bq                    4.9       0.04      1.7 
 Bq                    4.9       0.04      1.8 
 Bq                    4.9       0.04      1.9 
 Bq                    4.9       0.04      2. 
 Bq                    4.9       0.14     -2. 
 Bq                    4.9       0.14     -1.9 
 Bq                    4.9       0.14     -1.8 
 Bq                    4.9       0.14     -1.7 
 Bq                    4.9       0.14     -1.6 
 Bq                    4.9       0.14     -1.5 
 Bq                    4.9       0.14     -1.4 
 Bq                    4.9       0.14     -1.3 
 Bq                    4.9       0.14     -1.2 
 Bq                    4.9       0.14     -1.1 
 Bq                    4.9       0.14     -1. 
 Bq                    4.9       0.14     -0.9 
 Bq                    4.9       0.14     -0.8 
 Bq                    4.9       0.14     -0.7 
 Bq                    4.9       0.14     -0.6 
 Bq                    4.9       0.14     -0.5 
 Bq                    4.9       0.14     -0.4 
 Bq                    4.9       0.14     -0.3 
 Bq                    4.9       0.14     -0.2 
 Bq                    4.9       0.14     -0.1 
 Bq                    4.9       0.14      0. 
 Bq                    4.9       0.14      0.1 
 Bq                    4.9       0.14      0.2 
 Bq                    4.9       0.14      0.3 
 Bq                    4.9       0.14      0.4 
 Bq                    4.9       0.14      0.5 
 Bq                    4.9       0.14      0.6 
 Bq                    4.9       0.14      0.7 
 Bq                    4.9       0.14      0.8 
 Bq                    4.9       0.14      0.9 
 Bq                    4.9       0.14      1. 
 Bq                    4.9       0.14      1.1 
 Bq                    4.9       0.14      1.2 
 Bq                    4.9       0.14      1.3 
 Bq                    4.9       0.14      1.4 
 Bq                    4.9       0.14      1.5 
 Bq                    4.9       0.14      1.6 
 Bq                    4.9       0.14      1.7 
 Bq                    4.9       0.14      1.8 
 Bq                    4.9       0.14      1.9 
 Bq                    4.9       0.14      2. 
 Bq                    4.9       0.24     -2. 
 Bq                    4.9       0.24     -1.9 
 Bq                    4.9       0.24     -1.8 
 Bq                    4.9       0.24     -1.7 
 Bq                    4.9       0.24     -1.6 
 Bq                    4.9       0.24     -1.5 
 Bq                    4.9       0.24     -1.4 
 Bq                    4.9       0.24     -1.3 
 Bq                    4.9       0.24     -1.2 
 Bq                    4.9       0.24     -1.1 
 Bq                    4.9       0.24     -1. 
[...]
 ,0,5.,1.34,0.6\Bq,0,5.,1.34,0.7\Bq,0,5.,1.34,0.8\Bq,0,5.,1.34,0.9\Bq,0
 ,5.,1.34,1.\Bq,0,5.,1.34,1.1\Bq,0,5.,1.34,1.2\Bq,0,5.,1.34,1.3\Bq,0,5.
 ,1.34,1.4\Bq,0,5.,1.34,1.5\Bq,0,5.,1.34,1.6\Bq,0,5.,1.34,1.7\Bq,0,5.,1
 .34,1.8\Bq,0,5.,1.34,1.9\Bq,0,5.,1.34,2.\Bq,0,5.,1.44,-2.\Bq,0,5.,1.44
 ,-1.9\Bq,0,5.,1.44,-1.8\Bq,0,5.,1.44,-1.7\Bq,0,5.,1.44,-1.6\Bq,0,5.,1.
 44,-1.5\Bq,0,5.,1.44,-1.4\Bq,0,5.,1.44,-1.3\Bq,0,5.,1.44,-1.2\Bq,0,5.,
 1.44,-1.1\Bq,0,5.,1.44,-1.\Bq,0,5.,1.44,-0.9\Bq,0,5.,1.44,-0.8\Bq,0,5.
 ,1.44,-0.7\Bq,0,5.,1.44,-0.6\Bq,0,5.,1.44,-0.5\Bq,0,5.,1.44,-0.4\Bq,0,
 5.,1.44,-0.3\Bq,0,5.,1.44,-0.2\Bq,0,5.,1.44,-0.1\Bq,0,5.,1.44,0.\Bq,0,
 5.,1.44,0.1\Bq,0,5.,1.44,0.2\Bq,0,5.,1.44,0.3\Bq,0,5.,1.44,0.4\Bq,0,5.
 ,1.44,0.5\Bq,0,5.,1.44,0.6\Bq,0,5.,1.44,0.7\Bq,0,5.,1.44,0.8\Bq,0,5.,1
 .44,0.9\Bq,0,5.,1.44,1.\Bq,0,5.,1.44,1.1\Bq,0,5.,1.44,1.2\Bq,0,5.,1.44
 ,1.3\Bq,0,5.,1.44,1.4\Bq,0,5.,1.44,1.5\Bq,0,5.,1.44,1.6\Bq,0,5.,1.44,1
 .7\Bq,0,5.,1.44,1.8\Bq,0,5.,1.44,1.9\Bq,0,5.,1.44,2.\Bq,0,5.,1.54,-2.\
 Bq,0,5.,1.54,-1.9\Bq,0,5.,1.54,-1.8\Bq,0,5.,1.54,-1.7\Bq,0,5.,1.54,-1.
 6\Bq,0,5.,1.54,-1.5\Bq,0,5.,1.54,-1.4\Bq,0,5.,1.54,-1.3\Bq,0,5.,1.54,-
 1.2\Bq,0,5.,1.54,-1.1\Bq,0,5.,1.54,-1.\Bq,0,5.,1.54,-0.9\Bq,0,5.,1.54,
 -0.8\Bq,0,5.,1.54,-0.7\Bq,0,5.,1.54,-0.6\Bq,0,5.,1.54,-0.5\Bq,0,5.,1.5
 4,-0.4\Bq,0,5.,1.54,-0.3\Bq,0,5.,1.54,-0.2\Bq,0,5.,1.54,-0.1\Bq,0,5.,1
 .54,0.\Bq,0,5.,1.54,0.1\Bq,0,5.,1.54,0.2\Bq,0,5.,1.54,0.3\Bq,0,5.,1.54
 ,0.4\Bq,0,5.,1.54,0.5\Bq,0,5.,1.54,0.6\Bq,0,5.,1.54,0.7\Bq,0,5.,1.54,0
 .8\Bq,0,5.,1.54,0.9\Bq,0,5.,1.54,1.\Bq,0,5.,1.54,1.1\Bq,0,5.,1.54,1.2\
 Bq,0,5.,1.54,1.3\Bq,0,5.,1.54,1.4\Bq,0,5.,1.54,1.5\Bq,0,5.,1.54,1.6\Bq
 ,0,5.,1.54,1.7\Bq,0,5.,1.54,1.8\Bq,0,5.,1.54,1.9\Bq,0,5.,1.54,2.\Bq,0,
 5.,1.64,-2.\Bq,0,5.,1.64,-1.9\Bq,0,5.,1.64,-1.8\Bq,0,5.,1.64,-1.7\Bq,0
 ,5.,1.64,-1.6\Bq,0,5.,1.64,-1.5\Bq,0,5.,1.64,-1.4\Bq,0,5.,1.64,-1.3\Bq
 ,0,5.,1.64,-1.2\Bq,0,5.,1.64,-1.1\Bq,0,5.,1.64,-1.\Bq,0,5.,1.64,-0.9\B
 q,0,5.,1.64,-0.8\Bq,0,5.,1.64,-0.7\Bq,0,5.,1.64,-0.6\Bq,0,5.,1.64,-0.5
 \Bq,0,5.,1.64,-0.4\Bq,0,5.,1.64,-0.3\Bq,0,5.,1.64,-0.2\Bq,0,5.,1.64,-0
 .1\Bq,0,5.,1.64,0.\Bq,0,5.,1.64,0.1\Bq,0,5.,1.64,0.2\Bq,0,5.,1.64,0.3\
 Bq,0,5.,1.64,0.4\Bq,0,5.,1.64,0.5\Bq,0,5.,1.64,0.6\Bq,0,5.,1.64,0.7\Bq
 ,0,5.,1.64,0.8\Bq,0,5.,1.64,0.9\Bq,0,5.,1.64,1.\Bq,0,5.,1.64,1.1\Bq,0,
 5.,1.64,1.2\Bq,0,5.,1.64,1.3\Bq,0,5.,1.64,1.4\Bq,0,5.,1.64,1.5\Bq,0,5.
 ,1.64,1.6\Bq,0,5.,1.64,1.7\Bq,0,5.,1.64,1.8\Bq,0,5.,1.64,1.9\Bq,0,5.,1
 .64,2.\Bq,0,5.,1.74,-2.\Bq,0,5.,1.74,-1.9\Bq,0,5.,1.74,-1.8\Bq,0,5.,1.
 74,-1.7\Bq,0,5.,1.74,-1.6\Bq,0,5.,1.74,-1.5\Bq,0,5.,1.74,-1.4\Bq,0,5.,
 1.74,-1.3\Bq,0,5.,1.74,-1.2\Bq,0,5.,1.74,-1.1\Bq,0,5.,1.74,-1.\Bq,0,5.
 ,1.74,-0.9\Bq,0,5.,1.74,-0.8\Bq,0,5.,1.74,-0.7\Bq,0,5.,1.74,-0.6\Bq,0,
 5.,1.74,-0.5\Bq,0,5.,1.74,-0.4\Bq,0,5.,1.74,-0.3\Bq,0,5.,1.74,-0.2\Bq,
 0,5.,1.74,-0.1\Bq,0,5.,1.74,0.\Bq,0,5.,1.74,0.1\Bq,0,5.,1.74,0.2\Bq,0,
 5.,1.74,0.3\Bq,0,5.,1.74,0.4\Bq,0,5.,1.74,0.5\Bq,0,5.,1.74,0.6\Bq,0,5.
 ,1.74,0.7\Bq,0,5.,1.74,0.8\Bq,0,5.,1.74,0.9\Bq,0,5.,1.74,1.\Bq,0,5.,1.
 74,1.1\Bq,0,5.,1.74,1.2\Bq,0,5.,1.74,1.3\Bq,0,5.,1.74,1.4\Bq,0,5.,1.74
 ,1.5\Bq,0,5.,1.74,1.6\Bq,0,5.,1.74,1.7\Bq,0,5.,1.74,1.8\Bq,0,5.,1.74,1
 .9\Bq,0,5.,1.74,2.\Bq,0,5.,1.84,-2.\Bq,0,5.,1.84,-1.9\Bq,0,5.,1.84,-1.
 8\Bq,0,5.,1.84,-1.7\Bq,0,5.,1.84,-1.6\Bq,0,5.,1.84,-1.5\Bq,0,5.,1.84,-
 1.4\Bq,0,5.,1.84,-1.3\Bq,0,5.,1.84,-1.2\Bq,0,5.,1.84,-1.1\Bq,0,5.,1.84
 ,-1.\Bq,0,5.,1.84,-0.9\Bq,0,5.,1.84,-0.8\Bq,0,5.,1.84,-0.7\Bq,0,5.,1.8
 4,-0.6\Bq,0,5.,1.84,-0.5\Bq,0,5.,1.84,-0.4\Bq,0,5.,1.84,-0.3\Bq,0,5.,1
 .84,-0.2\Bq,0,5.,1.84,-0.1\Bq,0,5.,1.84,0.\Bq,0,5.,1.84,0.1\Bq,0,5.,1.
 84,0.2\Bq,0,5.,1.84,0.3\Bq,0,5.,1.84,0.4\Bq,0,5.,1.84,0.5\Bq,0,5.,1.84
 ,0.6\Bq,0,5.,1.84,0.7\Bq,0,5.,1.84,0.8\Bq,0,5.,1.84,0.9\Bq,0,5.,1.84,1
 .\Bq,0,5.,1.84,1.1\Bq,0,5.,1.84,1.2\Bq,0,5.,1.84,1.3\Bq,0,5.,1.84,1.4\
 Bq,0,5.,1.84,1.5\Bq,0,5.,1.84,1.6\Bq,0,5.,1.84,1.7\Bq,0,5.,1.84,1.8\Bq
 ,0,5.,1.84,1.9\Bq,0,5.,1.84,2.\Bq,0,5.,1.94,-2.\Bq,0,5.,1.94,-1.9\Bq,0
 ,5.,1.94,-1.8\Bq,0,5.,1.94,-1.7\Bq,0,5.,1.94,-1.6\Bq,0,5.,1.94,-1.5\Bq
 ,0,5.,1.94,-1.4\Bq,0,5.,1.94,-1.3\Bq,0,5.,1.94,-1.2\Bq,0,5.,1.94,-1.1\
 Bq,0,5.,1.94,-1.\Bq,0,5.,1.94,-0.9\Bq,0,5.,1.94,-0.8\Bq,0,5.,1.94,-0.7
 \Bq,0,5.,1.94,-0.6\Bq,0,5.,1.94,-0.5\Bq,0,5.,1.94,-0.4\Bq,0,5.,1.94,-0
 .3\Bq,0,5.,1.94,-0.2\Bq,0,5.,1.94,-0.1\Bq,0,5.,1.94,0.\Bq,0,5.,1.94,0.
 1\Bq,0,5.,1.94,0.2\Bq,0,5.,1.94,0.3\Bq,0,5.,1.94,0.4\Bq,0,5.,1.94,0.5\
 Bq,0,5.,1.94,0.6\Bq,0,5.,1.94,0.7\Bq,0,5.,1.94,0.8\Bq,0,5.,1.94,0.9\Bq
 ,0,5.,1.94,1.\Bq,0,5.,1.94,1.1\Bq,0,5.,1.94,1.2\Bq,0,5.,1.94,1.3\Bq,0,
 5.,1.94,1.4\Bq,0,5.,1.94,1.5\Bq,0,5.,1.94,1.6\Bq,0,5.,1.94,1.7\Bq,0,5.
 ,1.94,1.8\Bq,0,5.,1.94,1.9\Bq,0,5.,1.94,2.\Bq,0,5.,2.04,-2.\Bq,0,5.,2.
 04,-1.9\Bq,0,5.,2.04,-1.8\Bq,0,5.,2.04,-1.7\Bq,0,5.,2.04,-1.6\Bq,0,5.,
 2.04,-1.5\Bq,0,5.,2.04,-1.4\Bq,0,5.,2.04,-1.3\Bq,0,5.,2.04,-1.2\Bq,0,5
 .,2.04,-1.1\Bq,0,5.,2.04,-1.\Bq,0,5.,2.04,-0.9\Bq,0,5.,2.04,-0.8\Bq,0,
 5.,2.04,-0.7\Bq,0,5.,2.04,-0.6\Bq,0,5.,2.04,-0.5\Bq,0,5.,2.04,-0.4\Bq,
 0,5.,2.04,-0.3\Bq,0,5.,2.04,-0.2\Bq,0,5.,2.04,-0.1\Bq,0,5.,2.04,0.\Bq,
 0,5.,2.04,0.1\Bq,0,5.,2.04,0.2\Bq,0,5.,2.04,0.3\Bq,0,5.,2.04,0.4\Bq,0,
 5.,2.04,0.5\Bq,0,5.,2.04,0.6\Bq,0,5.,2.04,0.7\Bq,0,5.,2.04,0.8\Bq,0,5.
 ,2.04,0.9\Bq,0,5.,2.04,1.\Bq,0,5.,2.04,1.1\Bq,0,5.,2.04,1.2\Bq,0,5.,2.
 04,1.3\Bq,0,5.,2.04,1.4\Bq,0,5.,2.04,1.5\Bq,0,5.,2.04,1.6\Bq,0,5.,2.04
 ,1.7\Bq,0,5.,2.04,1.8\Bq,0,5.,2.04,1.9\Bq,0,5.,2.04,2.\Bq,0,5.,2.14,-2
 .\Bq,0,5.,2.14,-1.9\Bq,0,5.,2.14,-1.8\Bq,0,5.,2.14,-1.7\Bq,0,5.,2.14,-
 1.6\Bq,0,5.,2.14,-1.5\Bq,0,5.,2.14,-1.4\Bq,0,5.,2.14,-1.3\Bq,0,5.,2.14
 ,-1.2\Bq,0,5.,2.14,-1.1\Bq,0,5.,2.14,-1.\Bq,0,5.,2.14,-0.9\Bq,0,5.,2.1
 4,-0.8\Bq,0,5.,2.14,-0.7\Bq,0,5.,2.14,-0.6\Bq,0,5.,2.14,-0.5\Bq,0,5.,2
 .14,-0.4\Bq,0,5.,2.14,-0.3\Bq,0,5.,2.14,-0.2\Bq,0,5.,2.14,-0.1\Bq,0,5.
 ,2.14,0.\Bq,0,5.,2.14,0.1\Bq,0,5.,2.14,0.2\Bq,0,5.,2.14,0.3\Bq,0,5.,2.
 14,0.4\Bq,0,5.,2.14,0.5\Bq,0,5.,2.14,0.6\Bq,0,5.,2.14,0.7\Bq,0,5.,2.14
 ,0.8\Bq,0,5.,2.14,0.9\Bq,0,5.,2.14,1.\Bq,0,5.,2.14,1.1\Bq,0,5.,2.14,1.
 2\Bq,0,5.,2.14,1.3\Bq,0,5.,2.14,1.4\Bq,0,5.,2.14,1.5\Bq,0,5.,2.14,1.6\
 Bq,0,5.,2.14,1.7\Bq,0,5.,2.14,1.8\Bq,0,5.,2.14,1.9\Bq,0,5.,2.14,2.\Bq,
 0,5.,2.24,-2.\Bq,0,5.,2.24,-1.9\Bq,0,5.,2.24,-1.8\Bq,0,5.,2.24,-1.7\Bq
 ,0,5.,2.24,-1.6\Bq,0,5.,2.24,-1.5\Bq,0,5.,2.24,-1.4\Bq,0,5.,2.24,-1.3\
 Bq,0,5.,2.24,-1.2\Bq,0,5.,2.24,-1.1\Bq,0,5.,2.24,-1.\Bq,0,5.,2.24,-0.9
 \Bq,0,5.,2.24,-0.8\Bq,0,5.,2.24,-0.7\Bq,0,5.,2.24,-0.6\Bq,0,5.,2.24,-0
 .5\Bq,0,5.,2.24,-0.4\Bq,0,5.,2.24,-0.3\Bq,0,5.,2.24,-0.2\Bq,0,5.,2.24,
 -0.1\Bq,0,5.,2.24,0.\Bq,0,5.,2.24,0.1\Bq,0,5.,2.24,0.2\Bq,0,5.,2.24,0.
 3\Bq,0,5.,2.24,0.4\Bq,0,5.,2.24,0.5\Bq,0,5.,2.24,0.6\Bq,0,5.,2.24,0.7\
 Bq,0,5.,2.24,0.8\Bq,0,5.,2.24,0.9\Bq,0,5.,2.24,1.\Bq,0,5.,2.24,1.1\Bq,
 0,5.,2.24,1.2\Bq,0,5.,2.24,1.3\Bq,0,5.,2.24,1.4\Bq,0,5.,2.24,1.5\Bq,0,
 5.,2.24,1.6\Bq,0,5.,2.24,1.7\Bq,0,5.,2.24,1.8\Bq,0,5.,2.24,1.9\Bq,0,5.
 ,2.24,2.\Bq,0,5.,2.34,-2.\Bq,0,5.,2.34,-1.9\Bq,0,5.,2.34,-1.8\Bq,0,5.,
 2.34,-1.7\Bq,0,5.,2.34,-1.6\Bq,0,5.,2.34,-1.5\Bq,0,5.,2.34,-1.4\Bq,0,5
 .,2.34,-1.3\Bq,0,5.,2.34,-1.2\Bq,0,5.,2.34,-1.1\Bq,0,5.,2.34,-1.\Bq,0,
 5.,2.34,-0.9\Bq,0,5.,2.34,-0.8\Bq,0,5.,2.34,-0.7\Bq,0,5.,2.34,-0.6\Bq,
 0,5.,2.34,-0.5\Bq,0,5.,2.34,-0.4\Bq,0,5.,2.34,-0.3\Bq,0,5.,2.34,-0.2\B
 q,0,5.,2.34,-0.1\Bq,0,5.,2.34,0.\Bq,0,5.,2.34,0.1\Bq,0,5.,2.34,0.2\Bq,
 0,5.,2.34,0.3\Bq,0,5.,2.34,0.4\Bq,0,5.,2.34,0.5\Bq,0,5.,2.34,0.6\Bq,0,
 5.,2.34,0.7\Bq,0,5.,2.34,0.8\Bq,0,5.,2.34,0.9\Bq,0,5.,2.34,1.\Bq,0,5.,
 2.34,1.1\Bq,0,5.,2.34,1.2\Bq,0,5.,2.34,1.3\Bq,0,5.,2.34,1.4\Bq,0,5.,2.
 34,1.5\Bq,0,5.,2.34,1.6\Bq,0,5.,2.34,1.7\Bq,0,5.,2.34,1.8\Bq,0,5.,2.34
 ,1.9\Bq,0,5.,2.34,2.\Bq,0,5.,2.44,-2.\Bq,0,5.,2.44,-1.9\Bq,0,5.,2.44,-
 1.8\Bq,0,5.,2.44,-1.7\Bq,0,5.,2.44,-1.6\Bq,0,5.,2.44,-1.5\Bq,0,5.,2.44
 ,-1.4\Bq,0,5.,2.44,-1.3\Bq,0,5.,2.44,-1.2\Bq,0,5.,2.44,-1.1\Bq,0,5.,2.
 44,-1.\Bq,0,5.,2.44,-0.9\Bq,0,5.,2.44,-0.8\Bq,0,5.,2.44,-0.7\Bq,0,5.,2
 .44,-0.6\Bq,0,5.,2.44,-0.5\Bq,0,5.,2.44,-0.4\Bq,0,5.,2.44,-0.3\Bq,0,5.
 ,2.44,-0.2\Bq,0,5.,2.44,-0.1\Bq,0,5.,2.44,0.\Bq,0,5.,2.44,0.1\Bq,0,5.,
 2.44,0.2\Bq,0,5.,2.44,0.3\Bq,0,5.,2.44,0.4\Bq,0,5.,2.44,0.5\Bq,0,5.,2.
 44,0.6\Bq,0,5.,2.44,0.7\Bq,0,5.,2.44,0.8\Bq,0,5.,2.44,0.9\Bq,0,5.,2.44
 ,1.\Bq,0,5.,2.44,1.1\Bq,0,5.,2.44,1.2\Bq,0,5.,2.44,1.3\Bq,0,5.,2.44,1.
 4\Bq,0,5.,2.44,1.5\Bq,0,5.,2.44,1.6\Bq,0,5.,2.44,1.7\Bq,0,5.,2.44,1.8\
 Bq,0,5.,2.44,1.9\Bq,0,5.,2.44,2.\Bq,0,5.,2.54,-2.\Bq,0,5.,2.54,-1.9\Bq
 ,0,5.,2.54,-1.8\Bq,0,5.,2.54,-1.7\Bq,0,5.,2.54,-1.6\Bq,0,5.,2.54,-1.5\
 Bq,0,5.,2.54,-1.4\Bq,0,5.,2.54,-1.3\Bq,0,5.,2.54,-1.2\Bq,0,5.,2.54,-1.
 1\Bq,0,5.,2.54,-1.\Bq,0,5.,2.54,-0.9\Bq,0,5.,2.54,-0.8\Bq,0,5.,2.54,-0
 .7\Bq,0,5.,2.54,-0.6\Bq,0,5.,2.54,-0.5\Bq,0,5.,2.54,-0.4\Bq,0,5.,2.54,
 -0.3\Bq,0,5.,2.54,-0.2\Bq,0,5.,2.54,-0.1\Bq,0,5.,2.54,0.\Bq,0,5.,2.54,
 0.1\Bq,0,5.,2.54,0.2\Bq,0,5.,2.54,0.3\Bq,0,5.,2.54,0.4\Bq,0,5.,2.54,0.
 5\Bq,0,5.,2.54,0.6\Bq,0,5.,2.54,0.7\Bq,0,5.,2.54,0.8\Bq,0,5.,2.54,0.9\
 Bq,0,5.,2.54,1.\Bq,0,5.,2.54,1.1\Bq,0,5.,2.54,1.2\Bq,0,5.,2.54,1.3\Bq,
 0,5.,2.54,1.4\Bq,0,5.,2.54,1.5\Bq,0,5.,2.54,1.6\Bq,0,5.,2.54,1.7\Bq,0,
 5.,2.54,1.8\Bq,0,5.,2.54,1.9\Bq,0,5.,2.54,2.\Bq,0,5.,2.64,-2.\Bq,0,5.,
 2.64,-1.9\Bq,0,5.,2.64,-1.8\Bq,0,5.,2.64,-1.7\Bq,0,5.,2.64,-1.6\Bq,0,5
 .,2.64,-1.5\Bq,0,5.,2.64,-1.4\Bq,0,5.,2.64,-1.3\Bq,0,5.,2.64,-1.2\Bq,0
 ,5.,2.64,-1.1\Bq,0,5.,2.64,-1.\Bq,0,5.,2.64,-0.9\Bq,0,5.,2.64,-0.8\Bq,
 0,5.,2.64,-0.7\Bq,0,5.,2.64,-0.6\Bq,0,5.,2.64,-0.5\Bq,0,5.,2.64,-0.4\B
 q,0,5.,2.64,-0.3\Bq,0,5.,2.64,-0.2\Bq,0,5.,2.64,-0.1\Bq,0,5.,2.64,0.\B
 q,0,5.,2.64,0.1\Bq,0,5.,2.64,0.2\Bq,0,5.,2.64,0.3\Bq,0,5.,2.64,0.4\Bq,
 0,5.,2.64,0.5\Bq,0,5.,2.64,0.6\Bq,0,5.,2.64,0.7\Bq,0,5.,2.64,0.8\Bq,0,
 5.,2.64,0.9\Bq,0,5.,2.64,1.\Bq,0,5.,2.64,1.1\Bq,0,5.,2.64,1.2\Bq,0,5.,
 2.64,1.3\Bq,0,5.,2.64,1.4\Bq,0,5.,2.64,1.5\Bq,0,5.,2.64,1.6\Bq,0,5.,2.
 64,1.7\Bq,0,5.,2.64,1.8\Bq,0,5.,2.64,1.9\Bq,0,5.,2.64,2.\Bq,0,5.,2.74,
 -2.\Bq,0,5.,2.74,-1.9\Bq,0,5.,2.74,-1.8\Bq,0,5.,2.74,-1.7\Bq,0,5.,2.74
 ,-1.6\Bq,0,5.,2.74,-1.5\Bq,0,5.,2.74,-1.4\Bq,0,5.,2.74,-1.3\Bq,0,5.,2.
 74,-1.2\Bq,0,5.,2.74,-1.1\Bq,0,5.,2.74,-1.\Bq,0,5.,2.74,-0.9\Bq,0,5.,2
 .74,-0.8\Bq,0,5.,2.74,-0.7\Bq,0,5.,2.74,-0.6\Bq,0,5.,2.74,-0.5\Bq,0,5.
 ,2.74,-0.4\Bq,0,5.,2.74,-0.3\Bq,0,5.,2.74,-0.2\Bq,0,5.,2.74,-0.1\Bq,0,
 5.,2.74,0.\Bq,0,5.,2.74,0.1\Bq,0,5.,2.74,0.2\Bq,0,5.,2.74,0.3\Bq,0,5.,
 2.74,0.4\Bq,0,5.,2.74,0.5\Bq,0,5.,2.74,0.6\Bq,0,5.,2.74,0.7\Bq,0,5.,2.
 74,0.8\Bq,0,5.,2.74,0.9\Bq,0,5.,2.74,1.\Bq,0,5.,2.74,1.1\Bq,0,5.,2.74,
 1.2\Bq,0,5.,2.74,1.3\Bq,0,5.,2.74,1.4\Bq,0,5.,2.74,1.5\Bq,0,5.,2.74,1.
 6\Bq,0,5.,2.74,1.7\Bq,0,5.,2.74,1.8\Bq,0,5.,2.74,1.9\Bq,0,5.,2.74,2.\B
 q,0,5.,2.84,-2.\Bq,0,5.,2.84,-1.9\Bq,0,5.,2.84,-1.8\Bq,0,5.,2.84,-1.7\
 Bq,0,5.,2.84,-1.6\Bq,0,5.,2.84,-1.5\Bq,0,5.,2.84,-1.4\Bq,0,5.,2.84,-1.
 3\Bq,0,5.,2.84,-1.2\Bq,0,5.,2.84,-1.1\Bq,0,5.,2.84,-1.\Bq,0,5.,2.84,-0
 .9\Bq,0,5.,2.84,-0.8\Bq,0,5.,2.84,-0.7\Bq,0,5.,2.84,-0.6\Bq,0,5.,2.84,
 -0.5\Bq,0,5.,2.84,-0.4\Bq,0,5.,2.84,-0.3\Bq,0,5.,2.84,-0.2\Bq,0,5.,2.8
 4,-0.1\Bq,0,5.,2.84,0.\Bq,0,5.,2.84,0.1\Bq,0,5.,2.84,0.2\Bq,0,5.,2.84,
 0.3\Bq,0,5.,2.84,0.4\Bq,0,5.,2.84,0.5\Bq,0,5.,2.84,0.6\Bq,0,5.,2.84,0.
 7\Bq,0,5.,2.84,0.8\Bq,0,5.,2.84,0.9\Bq,0,5.,2.84,1.\Bq,0,5.,2.84,1.1\B
 q,0,5.,2.84,1.2\Bq,0,5.,2.84,1.3\Bq,0,5.,2.84,1.4\Bq,0,5.,2.84,1.5\Bq,
 0,5.,2.84,1.6\Bq,0,5.,2.84,1.7\Bq,0,5.,2.84,1.8\Bq,0,5.,2.84,1.9\Bq,0,
 5.,2.84,2.\Bq,0,5.,2.94,-2.\Bq,0,5.,2.94,-1.9\Bq,0,5.,2.94,-1.8\Bq,0,5
 .,2.94,-1.7\Bq,0,5.,2.94,-1.6\Bq,0,5.,2.94,-1.5\Bq,0,5.,2.94,-1.4\Bq,0
 ,5.,2.94,-1.3\Bq,0,5.,2.94,-1.2\Bq,0,5.,2.94,-1.1\Bq,0,5.,2.94,-1.\Bq,
 0,5.,2.94,-0.9\Bq,0,5.,2.94,-0.8\Bq,0,5.,2.94,-0.7\Bq,0,5.,2.94,-0.6\B
 q,0,5.,2.94,-0.5\Bq,0,5.,2.94,-0.4\Bq,0,5.,2.94,-0.3\Bq,0,5.,2.94,-0.2
 \Bq,0,5.,2.94,-0.1\Bq,0,5.,2.94,0.\Bq,0,5.,2.94,0.1\Bq,0,5.,2.94,0.2\B
 q,0,5.,2.94,0.3\Bq,0,5.,2.94,0.4\Bq,0,5.,2.94,0.5\Bq,0,5.,2.94,0.6\Bq,
 0,5.,2.94,0.7\Bq,0,5.,2.94,0.8\Bq,0,5.,2.94,0.9\Bq,0,5.,2.94,1.\Bq,0,5
 .,2.94,1.1\Bq,0,5.,2.94,1.2\Bq,0,5.,2.94,1.3\Bq,0,5.,2.94,1.4\Bq,0,5.,
 2.94,1.5\Bq,0,5.,2.94,1.6\Bq,0,5.,2.94,1.7\Bq,0,5.,2.94,1.8\Bq,0,5.,2.
 94,1.9\Bq,0,5.,2.94,2.\Bq,0,5.,3.04,-2.\Bq,0,5.,3.04,-1.9\Bq,0,5.,3.04
 ,-1.8\Bq,0,5.,3.04,-1.7\Bq,0,5.,3.04,-1.6\Bq,0,5.,3.04,-1.5\Bq,0,5.,3.
 04,-1.4\Bq,0,5.,3.04,-1.3\Bq,0,5.,3.04,-1.2\Bq,0,5.,3.04,-1.1\Bq,0,5.,
 3.04,-1.\Bq,0,5.,3.04,-0.9\Bq,0,5.,3.04,-0.8\Bq,0,5.,3.04,-0.7\Bq,0,5.
 ,3.04,-0.6\Bq,0,5.,3.04,-0.5\Bq,0,5.,3.04,-0.4\Bq,0,5.,3.04,-0.3\Bq,0,
 5.,3.04,-0.2\Bq,0,5.,3.04,-0.1\Bq,0,5.,3.04,0.\Bq,0,5.,3.04,0.1\Bq,0,5
 .,3.04,0.2\Bq,0,5.,3.04,0.3\Bq,0,5.,3.04,0.4\Bq,0,5.,3.04,0.5\Bq,0,5.,
 3.04,0.6\Bq,0,5.,3.04,0.7\Bq,0,5.,3.04,0.8\Bq,0,5.,3.04,0.9\Bq,0,5.,3.
 04,1.\Bq,0,5.,3.04,1.1\Bq,0,5.,3.04,1.2\Bq,0,5.,3.04,1.3\Bq,0,5.,3.04,
 1.4\Bq,0,5.,3.04,1.5\Bq,0,5.,3.04,1.6\Bq,0,5.,3.04,1.7\Bq,0,5.,3.04,1.
 8\Bq,0,5.,3.04,1.9\Bq,0,5.,3.04,2.\Bq,0,5.,3.14,-2.\Bq,0,5.,3.14,-1.9\
 Bq,0,5.,3.14,-1.8\Bq,0,5.,3.14,-1.7\Bq,0,5.,3.14,-1.6\Bq,0,5.,3.14,-1.
 5\Bq,0,5.,3.14,-1.4\Bq,0,5.,3.14,-1.3\Bq,0,5.,3.14,-1.2\Bq,0,5.,3.14,-
 1.1\Bq,0,5.,3.14,-1.\Bq,0,5.,3.14,-0.9\Bq,0,5.,3.14,-0.8\Bq,0,5.,3.14,
 -0.7\Bq,0,5.,3.14,-0.6\Bq,0,5.,3.14,-0.5\Bq,0,5.,3.14,-0.4\Bq,0,5.,3.1
 4,-0.3\Bq,0,5.,3.14,-0.2\Bq,0,5.,3.14,-0.1\Bq,0,5.,3.14,0.\Bq,0,5.,3.1
 4,0.1\Bq,0,5.,3.14,0.2\Bq,0,5.,3.14,0.3\Bq,0,5.,3.14,0.4\Bq,0,5.,3.14,
 0.5\Bq,0,5.,3.14,0.6\Bq,0,5.,3.14,0.7\Bq,0,5.,3.14,0.8\Bq,0,5.,3.14,0.
 9\Bq,0,5.,3.14,1.\Bq,0,5.,3.14,1.1\Bq,0,5.,3.14,1.2\Bq,0,5.,3.14,1.3\B
 q,0,5.,3.14,1.4\Bq,0,5.,3.14,1.5\Bq,0,5.,3.14,1.6\Bq,0,5.,3.14,1.7\Bq,
 0,5.,3.14,1.8\Bq,0,5.,3.14,1.9\Bq,0,5.,3.14,2.\Bq,0,5.,3.24,-2.\Bq,0,5
 .,3.24,-1.9\Bq,0,5.,3.24,-1.8\Bq,0,5.,3.24,-1.7\Bq,0,5.,3.24,-1.6\Bq,0
 ,5.,3.24,-1.5\Bq,0,5.,3.24,-1.4\Bq,0,5.,3.24,-1.3\Bq,0,5.,3.24,-1.2\Bq
 ,0,5.,3.24,-1.1\Bq,0,5.,3.24,-1.\Bq,0,5.,3.24,-0.9\Bq,0,5.,3.24,-0.8\B
 q,0,5.,3.24,-0.7\Bq,0,5.,3.24,-0.6\Bq,0,5.,3.24,-0.5\Bq,0,5.,3.24,-0.4
 \Bq,0,5.,3.24,-0.3\Bq,0,5.,3.24,-0.2\Bq,0,5.,3.24,-0.1\Bq,0,5.,3.24,0.
 \Bq,0,5.,3.24,0.1\Bq,0,5.,3.24,0.2\Bq,0,5.,3.24,0.3\Bq,0,5.,3.24,0.4\B
 q,0,5.,3.24,0.5\Bq,0,5.,3.24,0.6\Bq,0,5.,3.24,0.7\Bq,0,5.,3.24,0.8\Bq,
 0,5.,3.24,0.9\Bq,0,5.,3.24,1.\Bq,0,5.,3.24,1.1\Bq,0,5.,3.24,1.2\Bq,0,5
 .,3.24,1.3\Bq,0,5.,3.24,1.4\Bq,0,5.,3.24,1.5\Bq,0,5.,3.24,1.6\Bq,0,5.,
 3.24,1.7\Bq,0,5.,3.24,1.8\Bq,0,5.,3.24,1.9\Bq,0,5.,3.24,2.\Bq,0,5.,3.3
 4,-2.\Bq,0,5.,3.34,-1.9\Bq,0,5.,3.34,-1.8\Bq,0,5.,3.34,-1.7\Bq,0,5.,3.
 34,-1.6\Bq,0,5.,3.34,-1.5\Bq,0,5.,3.34,-1.4\Bq,0,5.,3.34,-1.3\Bq,0,5.,
 3.34,-1.2\Bq,0,5.,3.34,-1.1\Bq,0,5.,3.34,-1.\Bq,0,5.,3.34,-0.9\Bq,0,5.
 ,3.34,-0.8\Bq,0,5.,3.34,-0.7\Bq,0,5.,3.34,-0.6\Bq,0,5.,3.34,-0.5\Bq,0,
 5.,3.34,-0.4\Bq,0,5.,3.34,-0.3\Bq,0,5.,3.34,-0.2\Bq,0,5.,3.34,-0.1\Bq,
 0,5.,3.34,0.\Bq,0,5.,3.34,0.1\Bq,0,5.,3.34,0.2\Bq,0,5.,3.34,0.3\Bq,0,5
 .,3.34,0.4\Bq,0,5.,3.34,0.5\Bq,0,5.,3.34,0.6\Bq,0,5.,3.34,0.7\Bq,0,5.,
 3.34,0.8\Bq,0,5.,3.34,0.9\Bq,0,5.,3.34,1.\Bq,0,5.,3.34,1.1\Bq,0,5.,3.3
 4,1.2\Bq,0,5.,3.34,1.3\Bq,0,5.,3.34,1.4\Bq,0,5.,3.34,1.5\Bq,0,5.,3.34,
 1.6\Bq,0,5.,3.34,1.7\Bq,0,5.,3.34,1.8\Bq,0,5.,3.34,1.9\Bq,0,5.,3.34,2.
 \Bq,0,5.,3.44,-2.\Bq,0,5.,3.44,-1.9\Bq,0,5.,3.44,-1.8\Bq,0,5.,3.44,-1.
 7\Bq,0,5.,3.44,-1.6\Bq,0,5.,3.44,-1.5\Bq,0,5.,3.44,-1.4\Bq,0,5.,3.44,-
 1.3\Bq,0,5.,3.44,-1.2\Bq,0,5.,3.44,-1.1\Bq,0,5.,3.44,-1.\Bq,0,5.,3.44,
 -0.9\Bq,0,5.,3.44,-0.8\Bq,0,5.,3.44,-0.7\Bq,0,5.,3.44,-0.6\Bq,0,5.,3.4
 4,-0.5\Bq,0,5.,3.44,-0.4\Bq,0,5.,3.44,-0.3\Bq,0,5.,3.44,-0.2\Bq,0,5.,3
 .44,-0.1\Bq,0,5.,3.44,0.\Bq,0,5.,3.44,0.1\Bq,0,5.,3.44,0.2\Bq,0,5.,3.4
 4,0.3\Bq,0,5.,3.44,0.4\Bq,0,5.,3.44,0.5\Bq,0,5.,3.44,0.6\Bq,0,5.,3.44,
 0.7\Bq,0,5.,3.44,0.8\Bq,0,5.,3.44,0.9\Bq,0,5.,3.44,1.\Bq,0,5.,3.44,1.1
 \Bq,0,5.,3.44,1.2\Bq,0,5.,3.44,1.3\Bq,0,5.,3.44,1.4\Bq,0,5.,3.44,1.5\B
 q,0,5.,3.44,1.6\Bq,0,5.,3.44,1.7\Bq,0,5.,3.44,1.8\Bq,0,5.,3.44,1.9\Bq,
 0,5.,3.44,2.\Bq,0,5.,3.54,-2.\Bq,0,5.,3.54,-1.9\Bq,0,5.,3.54,-1.8\Bq,0
 ,5.,3.54,-1.7\Bq,0,5.,3.54,-1.6\Bq,0,5.,3.54,-1.5\Bq,0,5.,3.54,-1.4\Bq
 ,0,5.,3.54,-1.3\Bq,0,5.,3.54,-1.2\Bq,0,5.,3.54,-1.1\Bq,0,5.,3.54,-1.\B
 q,0,5.,3.54,-0.9\Bq,0,5.,3.54,-0.8\Bq,0,5.,3.54,-0.7\Bq,0,5.,3.54,-0.6
 \Bq,0,5.,3.54,-0.5\Bq,0,5.,3.54,-0.4\Bq,0,5.,3.54,-0.3\Bq,0,5.,3.54,-0
 .2\Bq,0,5.,3.54,-0.1\Bq,0,5.,3.54,0.\Bq,0,5.,3.54,0.1\Bq,0,5.,3.54,0.2
 \Bq,0,5.,3.54,0.3\Bq,0,5.,3.54,0.4\Bq,0,5.,3.54,0.5\Bq,0,5.,3.54,0.6\B
 q,0,5.,3.54,0.7\Bq,0,5.,3.54,0.8\Bq,0,5.,3.54,0.9\Bq,0,5.,3.54,1.\Bq,0
 ,5.,3.54,1.1\Bq,0,5.,3.54,1.2\Bq,0,5.,3.54,1.3\Bq,0,5.,3.54,1.4\Bq,0,5
 .,3.54,1.5\Bq,0,5.,3.54,1.6\Bq,0,5.,3.54,1.7\Bq,0,5.,3.54,1.8\Bq,0,5.,
 3.54,1.9\Bq,0,5.,3.54,2.\Bq,0,5.,3.64,-2.\Bq,0,5.,3.64,-1.9\Bq,0,5.,3.
 64,-1.8\Bq,0,5.,3.64,-1.7\Bq,0,5.,3.64,-1.6\Bq,0,5.,3.64,-1.5\Bq,0,5.,
 3.64,-1.4\Bq,0,5.,3.64,-1.3\Bq,0,5.,3.64,-1.2\Bq,0,5.,3.64,-1.1\Bq,0,5
 .,3.64,-1.\Bq,0,5.,3.64,-0.9\Bq,0,5.,3.64,-0.8\Bq,0,5.,3.64,-0.7\Bq,0,
 5.,3.64,-0.6\Bq,0,5.,3.64,-0.5\Bq,0,5.,3.64,-0.4\Bq,0,5.,3.64,-0.3\Bq,
 0,5.,3.64,-0.2\Bq,0,5.,3.64,-0.1\Bq,0,5.,3.64,0.\Bq,0,5.,3.64,0.1\Bq,0
 ,5.,3.64,0.2\Bq,0,5.,3.64,0.3\Bq,0,5.,3.64,0.4\Bq,0,5.,3.64,0.5\Bq,0,5
 .,3.64,0.6\Bq,0,5.,3.64,0.7\Bq,0,5.,3.64,0.8\Bq,0,5.,3.64,0.9\Bq,0,5.,
 3.64,1.\Bq,0,5.,3.64,1.1\Bq,0,5.,3.64,1.2\Bq,0,5.,3.64,1.3\Bq,0,5.,3.6
 4,1.4\Bq,0,5.,3.64,1.5\Bq,0,5.,3.64,1.6\Bq,0,5.,3.64,1.7\Bq,0,5.,3.64,
 1.8\Bq,0,5.,3.64,1.9\Bq,0,5.,3.64,2.\Bq,0,5.,3.74,-2.\Bq,0,5.,3.74,-1.
 9\Bq,0,5.,3.74,-1.8\Bq,0,5.,3.74,-1.7\Bq,0,5.,3.74,-1.6\Bq,0,5.,3.74,-
 1.5\Bq,0,5.,3.74,-1.4\Bq,0,5.,3.74,-1.3\Bq,0,5.,3.74,-1.2\Bq,0,5.,3.74
 ,-1.1\Bq,0,5.,3.74,-1.\Bq,0,5.,3.74,-0.9\Bq,0,5.,3.74,-0.8\Bq,0,5.,3.7
 4,-0.7\Bq,0,5.,3.74,-0.6\Bq,0,5.,3.74,-0.5\Bq,0,5.,3.74,-0.4\Bq,0,5.,3
 .74,-0.3\Bq,0,5.,3.74,-0.2\Bq,0,5.,3.74,-0.1\Bq,0,5.,3.74,0.\Bq,0,5.,3
 .74,0.1\Bq,0,5.,3.74,0.2\Bq,0,5.,3.74,0.3\Bq,0,5.,3.74,0.4\Bq,0,5.,3.7
 4,0.5\Bq,0,5.,3.74,0.6\Bq,0,5.,3.74,0.7\Bq,0,5.,3.74,0.8\Bq,0,5.,3.74,
 0.9\Bq,0,5.,3.74,1.\Bq,0,5.,3.74,1.1\Bq,0,5.,3.74,1.2\Bq,0,5.,3.74,1.3
 \Bq,0,5.,3.74,1.4\Bq,0,5.,3.74,1.5\Bq,0,5.,3.74,1.6\Bq,0,5.,3.74,1.7\B
 q,0,5.,3.74,1.8\Bq,0,5.,3.74,1.9\Bq,0,5.,3.74,2.\Bq,0,5.,3.84,-2.\Bq,0
 ,5.,3.84,-1.9\Bq,0,5.,3.84,-1.8\Bq,0,5.,3.84,-1.7\Bq,0,5.,3.84,-1.6\Bq
 ,0,5.,3.84,-1.5\Bq,0,5.,3.84,-1.4\Bq,0,5.,3.84,-1.3\Bq,0,5.,3.84,-1.2\
 Bq,0,5.,3.84,-1.1\Bq,0,5.,3.84,-1.\Bq,0,5.,3.84,-0.9\Bq,0,5.,3.84,-0.8
 \Bq,0,5.,3.84,-0.7\Bq,0,5.,3.84,-0.6\Bq,0,5.,3.84,-0.5\Bq,0,5.,3.84,-0
 .4\Bq,0,5.,3.84,-0.3\Bq,0,5.,3.84,-0.2\Bq,0,5.,3.84,-0.1\Bq,0,5.,3.84,
 0.\Bq,0,5.,3.84,0.1\Bq,0,5.,3.84,0.2\Bq,0,5.,3.84,0.3\Bq,0,5.,3.84,0.4
 \Bq,0,5.,3.84,0.5\Bq,0,5.,3.84,0.6\Bq,0,5.,3.84,0.7\Bq,0,5.,3.84,0.8\B
 q,0,5.,3.84,0.9\Bq,0,5.,3.84,1.\Bq,0,5.,3.84,1.1\Bq,0,5.,3.84,1.2\Bq,0
 ,5.,3.84,1.3\Bq,0,5.,3.84,1.4\Bq,0,5.,3.84,1.5\Bq,0,5.,3.84,1.6\Bq,0,5
 .,3.84,1.7\Bq,0,5.,3.84,1.8\Bq,0,5.,3.84,1.9\Bq,0,5.,3.84,2.\Bq,0,5.,3
 .94,-2.\Bq,0,5.,3.94,-1.9\Bq,0,5.,3.94,-1.8\Bq,0,5.,3.94,-1.7\Bq,0,5.,
 3.94,-1.6\Bq,0,5.,3.94,-1.5\Bq,0,5.,3.94,-1.4\Bq,0,5.,3.94,-1.3\Bq,0,5
 .,3.94,-1.2\Bq,0,5.,3.94,-1.1\Bq,0,5.,3.94,-1.\Bq,0,5.,3.94,-0.9\Bq,0,
 5.,3.94,-0.8\Bq,0,5.,3.94,-0.7\Bq,0,5.,3.94,-0.6\Bq,0,5.,3.94,-0.5\Bq,
 0,5.,3.94,-0.4\Bq,0,5.,3.94,-0.3\Bq,0,5.,3.94,-0.2\Bq,0,5.,3.94,-0.1\B
 q,0,5.,3.94,0.\Bq,0,5.,3.94,0.1\Bq,0,5.,3.94,0.2\Bq,0,5.,3.94,0.3\Bq,0
 ,5.,3.94,0.4\Bq,0,5.,3.94,0.5\Bq,0,5.,3.94,0.6\Bq,0,5.,3.94,0.7\Bq,0,5
 .,3.94,0.8\Bq,0,5.,3.94,0.9\Bq,0,5.,3.94,1.\Bq,0,5.,3.94,1.1\Bq,0,5.,3
 .94,1.2\Bq,0,5.,3.94,1.3\Bq,0,5.,3.94,1.4\Bq,0,5.,3.94,1.5\Bq,0,5.,3.9
 4,1.6\Bq,0,5.,3.94,1.7\Bq,0,5.,3.94,1.8\Bq,0,5.,3.94,1.9\Bq,0,5.,3.94,
 2.\\Version=ES64L-G16RevA.03\HF=-389.240428\RMSD=0.000e+00\Dipole=-0.0
 000502,0.6401925,0.\Quadrupole=3.082701,2.8394206,-5.9221216,0.0000068
 ,0.,0.\PG=C01 [X(C8H8B1N1)]\\@


 IT IS UNWORTHY OF EXCELLENT MEN TO LOSE HOURS LIKE SLAVES IN THE LABOR
 OF CALCULATION WHICH COULD BE SAFELY RELEGATED TO ANYONE ELSE
 IF A MACHINE WERE USED.
    -- G.W. VON LEIBNIZ
 Job cpu time:       0 days  0 hours 55 minutes 37.6 seconds.
 Elapsed time:       0 days  0 hours  2 minutes 39.9 seconds.
 File lengths (MBytes):  RWF=     84 Int=      0 D2E=      0 Chk=     24 Scr=      1
 Normal termination of Gaussian 16 at Thu Nov 20 19:37:22 2025.
