[Molden Format]
[Atoms] Angs
 c       1                    6  2.348779483356e+00 -5.494928379266e-01  6.005762490930e-01
 c       2                    6  2.221409429444e+00  8.746714176165e-01  8.140837547424e-01
 c       3                    6  1.014227906004e+00  1.508124602327e+00  7.350845973757e-01
 n       4                    7 -2.055351206567e-01  8.245621292485e-01  5.491140425610e-01
 b       5                    5 -1.432955806022e-01 -6.784585869626e-01  1.220298268683e-01
 c       6                    6  1.272963776932e+00 -1.310926326436e+00  2.372968450945e-01
 c       7                    6 -1.362028219857e+00 -1.375226244867e+00 -4.755727800590e-01
 c       8                    6 -2.599740303449e+00 -6.332224622637e-01 -6.297687078609e-01
 c       9                    6 -2.325844244124e+00  7.078923635690e-01 -6.030202042860e-01
 c      10                    6 -8.480489803446e-01  8.427085958923e-01 -6.845300385249e-01
 h      11                    1  3.338657869539e+00 -1.000762335310e+00  7.242190872696e-01
 h      12                    1  3.101045921154e+00  1.480446479203e+00  1.040800681024e+00
 h      13                    1  9.147410269866e-01  2.586629155186e+00  8.919980114827e-01
 h      14                    1  1.422134948889e+00 -2.386641785133e+00  8.507361605079e-02
 h      15                    1 -1.270398496370e+00 -2.398015188764e+00 -8.599246148255e-01
 h      16                    1 -3.589266761338e+00 -1.095614384126e+00 -6.265037063963e-01
 h      17                    1 -2.978615860939e+00  1.533306055083e+00 -3.056587584876e-01
 h      18                    1 -3.111867946242e-01  1.070019353666e+00 -1.615297901123e+00
[GTO]
1
 s           8
      6.665000000000e+03      6.915839628130e-04
      1.000000000000e+03      5.325796152934e-03
      2.280000000000e+02      2.706072104203e-02
      6.471000000000e+01      1.016568461408e-01
      2.106000000000e+01      2.745748236174e-01
      7.495000000000e+00      4.482943189238e-01
      2.797000000000e+00      2.849026107152e-01
      5.215000000000e-01      1.519485920608e-02
 s           8
      6.665000000000e+03     -2.932696526865e-04
      1.000000000000e+03     -2.318035473975e-03
      2.280000000000e+02     -1.149978603857e-02
      6.471000000000e+01     -4.682672700979e-02
      2.106000000000e+01     -1.284661687505e-01
      7.495000000000e+00     -3.012662724629e-01
      2.797000000000e+00     -2.556307023301e-01
      5.215000000000e-01      1.093793361012e+00
 s           1
      1.596000000000e-01      1.000000000000e+00
 s           1
      4.690000000000e-02      1.000000000000e+00
 p           3
      9.439000000000e+00      5.697925159004e-02
      2.002000000000e+00      3.132072115007e-01
      5.456000000000e-01      7.603767417375e-01
 p           1
      1.517000000000e-01      1.000000000000e+00
 p           1
      4.041000000000e-02      1.000000000000e+00
 d           1
      5.500000000000e-01      1.000000000000e+00
 d           1
      1.510000000000e-01      1.000000000000e+00

2
 s           8
      6.665000000000e+03      6.915839628130e-04
      1.000000000000e+03      5.325796152934e-03
      2.280000000000e+02      2.706072104203e-02
      6.471000000000e+01      1.016568461408e-01
      2.106000000000e+01      2.745748236174e-01
      7.495000000000e+00      4.482943189238e-01
      2.797000000000e+00      2.849026107152e-01
      5.215000000000e-01      1.519485920608e-02
 s           8
      6.665000000000e+03     -2.932696526865e-04
      1.000000000000e+03     -2.318035473975e-03
      2.280000000000e+02     -1.149978603857e-02
      6.471000000000e+01     -4.682672700979e-02
      2.106000000000e+01     -1.284661687505e-01
      7.495000000000e+00     -3.012662724629e-01
      2.797000000000e+00     -2.556307023301e-01
      5.215000000000e-01      1.093793361012e+00
 s           1
      1.596000000000e-01      1.000000000000e+00
 s           1
      4.690000000000e-02      1.000000000000e+00
 p           3
      9.439000000000e+00      5.697925159004e-02
      2.002000000000e+00      3.132072115007e-01
      5.456000000000e-01      7.603767417375e-01
 p           1
      1.517000000000e-01      1.000000000000e+00
 p           1
      4.041000000000e-02      1.000000000000e+00
 d           1
      5.500000000000e-01      1.000000000000e+00
 d           1
      1.510000000000e-01      1.000000000000e+00

3
 s           8
      6.665000000000e+03      6.915839628130e-04
      1.000000000000e+03      5.325796152934e-03
      2.280000000000e+02      2.706072104203e-02
      6.471000000000e+01      1.016568461408e-01
      2.106000000000e+01      2.745748236174e-01
      7.495000000000e+00      4.482943189238e-01
      2.797000000000e+00      2.849026107152e-01
      5.215000000000e-01      1.519485920608e-02
 s           8
      6.665000000000e+03     -2.932696526865e-04
      1.000000000000e+03     -2.318035473975e-03
      2.280000000000e+02     -1.149978603857e-02
      6.471000000000e+01     -4.682672700979e-02
      2.106000000000e+01     -1.284661687505e-01
      7.495000000000e+00     -3.012662724629e-01
      2.797000000000e+00     -2.556307023301e-01
      5.215000000000e-01      1.093793361012e+00
 s           1
      1.596000000000e-01      1.000000000000e+00
 s           1
      4.690000000000e-02      1.000000000000e+00
 p           3
      9.439000000000e+00      5.697925159004e-02
      2.002000000000e+00      3.132072115007e-01
      5.456000000000e-01      7.603767417375e-01
 p           1
      1.517000000000e-01      1.000000000000e+00
 p           1
      4.041000000000e-02      1.000000000000e+00
 d           1
      5.500000000000e-01      1.000000000000e+00
 d           1
      1.510000000000e-01      1.000000000000e+00

4
 s           8
      9.046000000000e+03      6.996174134255e-04
      1.357000000000e+03      5.386054629929e-03
      3.093000000000e+02      2.739102118906e-02
      8.773000000000e+01      1.031505919820e-01
      2.856000000000e+01      2.785706633174e-01
      1.021000000000e+01      4.482948494541e-01
      3.838000000000e+00      2.780859283953e-01
      7.466000000000e-01      1.543156123327e-02
 s           8
      9.046000000000e+03     -3.049900959534e-04
      1.357000000000e+03     -2.408026378508e-03
      3.093000000000e+02     -1.194444872518e-02
      8.773000000000e+01     -4.892599290902e-02
      2.856000000000e+01     -1.344727247250e-01
      1.021000000000e+01     -3.151125777001e-01
      3.838000000000e+00     -2.428578325496e-01
      7.466000000000e-01      1.094382206854e+00
 s           1
      2.248000000000e-01      1.000000000000e+00
 s           1
      6.124000000000e-02      1.000000000000e+00
 p           3
      1.355000000000e+01      5.890567677213e-02
      2.917000000000e+00      3.204611067143e-01
      7.973000000000e-01      7.530420617921e-01
 p           1
      2.185000000000e-01      1.000000000000e+00
 p           1
      5.611000000000e-02      1.000000000000e+00
 d           1
      8.170000000000e-01      1.000000000000e+00
 d           1
      2.300000000000e-01      1.000000000000e+00

5
 s           8
      4.570000000000e+03      6.955544180306e-04
      6.859000000000e+02      5.349572988100e-03
      1.565000000000e+02      2.711662870523e-02
      4.447000000000e+01      1.013150961206e-01
      1.448000000000e+01      2.718808293065e-01
      5.131000000000e+00      4.481159306152e-01
      1.898000000000e+00      2.899372621010e-01
      3.329000000000e-01      1.431283099861e-02
 s           8
      4.570000000000e+03     -2.812802240142e-04
      6.859000000000e+02     -2.219887811105e-03
      1.565000000000e+02     -1.101647150743e-02
      4.447000000000e+01     -4.434918985248e-02
      1.448000000000e+01     -1.209120479502e-01
      5.131000000000e+00     -2.807378995535e-01
      1.898000000000e+00     -2.660668087326e-01
      3.329000000000e-01      1.091784130514e+00
 s           1
      1.043000000000e-01      1.000000000000e+00
 s           1
      3.105000000000e-02      1.000000000000e+00
 p           3
      6.001000000000e+00      5.416586334015e-02
      1.241000000000e+00      3.023798901809e-01
      3.364000000000e-01      7.712922165481e-01
 p           1
      9.538000000000e-02      1.000000000000e+00
 p           1
      2.378000000000e-02      1.000000000000e+00
 d           1
      3.430000000000e-01      1.000000000000e+00
 d           1
      9.040000000000e-02      1.000000000000e+00

6
 s           8
      6.665000000000e+03      6.915839628130e-04
      1.000000000000e+03      5.325796152934e-03
      2.280000000000e+02      2.706072104203e-02
      6.471000000000e+01      1.016568461408e-01
      2.106000000000e+01      2.745748236174e-01
      7.495000000000e+00      4.482943189238e-01
      2.797000000000e+00      2.849026107152e-01
      5.215000000000e-01      1.519485920608e-02
 s           8
      6.665000000000e+03     -2.932696526865e-04
      1.000000000000e+03     -2.318035473975e-03
      2.280000000000e+02     -1.149978603857e-02
      6.471000000000e+01     -4.682672700979e-02
      2.106000000000e+01     -1.284661687505e-01
      7.495000000000e+00     -3.012662724629e-01
      2.797000000000e+00     -2.556307023301e-01
      5.215000000000e-01      1.093793361012e+00
 s           1
      1.596000000000e-01      1.000000000000e+00
 s           1
      4.690000000000e-02      1.000000000000e+00
 p           3
      9.439000000000e+00      5.697925159004e-02
      2.002000000000e+00      3.132072115007e-01
      5.456000000000e-01      7.603767417375e-01
 p           1
      1.517000000000e-01      1.000000000000e+00
 p           1
      4.041000000000e-02      1.000000000000e+00
 d           1
      5.500000000000e-01      1.000000000000e+00
 d           1
      1.510000000000e-01      1.000000000000e+00

7
 s           8
      6.665000000000e+03      6.915839628130e-04
      1.000000000000e+03      5.325796152934e-03
      2.280000000000e+02      2.706072104203e-02
      6.471000000000e+01      1.016568461408e-01
      2.106000000000e+01      2.745748236174e-01
      7.495000000000e+00      4.482943189238e-01
      2.797000000000e+00      2.849026107152e-01
      5.215000000000e-01      1.519485920608e-02
 s           8
      6.665000000000e+03     -2.932696526865e-04
      1.000000000000e+03     -2.318035473975e-03
      2.280000000000e+02     -1.149978603857e-02
      6.471000000000e+01     -4.682672700979e-02
      2.106000000000e+01     -1.284661687505e-01
      7.495000000000e+00     -3.012662724629e-01
      2.797000000000e+00     -2.556307023301e-01
      5.215000000000e-01      1.093793361012e+00
 s           1
      1.596000000000e-01      1.000000000000e+00
 s           1
      4.690000000000e-02      1.000000000000e+00
 p           3
      9.439000000000e+00      5.697925159004e-02
      2.002000000000e+00      3.132072115007e-01
      5.456000000000e-01      7.603767417375e-01
 p           1
      1.517000000000e-01      1.000000000000e+00
 p           1
      4.041000000000e-02      1.000000000000e+00
 d           1
      5.500000000000e-01      1.000000000000e+00
 d           1
      1.510000000000e-01      1.000000000000e+00

8
 s           8
      6.665000000000e+03      6.915839628130e-04
      1.000000000000e+03      5.325796152934e-03
      2.280000000000e+02      2.706072104203e-02
      6.471000000000e+01      1.016568461408e-01
      2.106000000000e+01      2.745748236174e-01
      7.495000000000e+00      4.482943189238e-01
      2.797000000000e+00      2.849026107152e-01
      5.215000000000e-01      1.519485920608e-02
 s           8
      6.665000000000e+03     -2.932696526865e-04
      1.000000000000e+03     -2.318035473975e-03
      2.280000000000e+02     -1.149978603857e-02
      6.471000000000e+01     -4.682672700979e-02
      2.106000000000e+01     -1.284661687505e-01
      7.495000000000e+00     -3.012662724629e-01
      2.797000000000e+00     -2.556307023301e-01
      5.215000000000e-01      1.093793361012e+00
 s           1
      1.596000000000e-01      1.000000000000e+00
 s           1
      4.690000000000e-02      1.000000000000e+00
 p           3
      9.439000000000e+00      5.697925159004e-02
      2.002000000000e+00      3.132072115007e-01
      5.456000000000e-01      7.603767417375e-01
 p           1
      1.517000000000e-01      1.000000000000e+00
 p           1
      4.041000000000e-02      1.000000000000e+00
 d           1
      5.500000000000e-01      1.000000000000e+00
 d           1
      1.510000000000e-01      1.000000000000e+00

9
 s           8
      6.665000000000e+03      6.915839628130e-04
      1.000000000000e+03      5.325796152934e-03
      2.280000000000e+02      2.706072104203e-02
      6.471000000000e+01      1.016568461408e-01
      2.106000000000e+01      2.745748236174e-01
      7.495000000000e+00      4.482943189238e-01
      2.797000000000e+00      2.849026107152e-01
      5.215000000000e-01      1.519485920608e-02
 s           8
      6.665000000000e+03     -2.932696526865e-04
      1.000000000000e+03     -2.318035473975e-03
      2.280000000000e+02     -1.149978603857e-02
      6.471000000000e+01     -4.682672700979e-02
      2.106000000000e+01     -1.284661687505e-01
      7.495000000000e+00     -3.012662724629e-01
      2.797000000000e+00     -2.556307023301e-01
      5.215000000000e-01      1.093793361012e+00
 s           1
      1.596000000000e-01      1.000000000000e+00
 s           1
      4.690000000000e-02      1.000000000000e+00
 p           3
      9.439000000000e+00      5.697925159004e-02
      2.002000000000e+00      3.132072115007e-01
      5.456000000000e-01      7.603767417375e-01
 p           1
      1.517000000000e-01      1.000000000000e+00
 p           1
      4.041000000000e-02      1.000000000000e+00
 d           1
      5.500000000000e-01      1.000000000000e+00
 d           1
      1.510000000000e-01      1.000000000000e+00

10
 s           8
      6.665000000000e+03      6.915839628130e-04
      1.000000000000e+03      5.325796152934e-03
      2.280000000000e+02      2.706072104203e-02
      6.471000000000e+01      1.016568461408e-01
      2.106000000000e+01      2.745748236174e-01
      7.495000000000e+00      4.482943189238e-01
      2.797000000000e+00      2.849026107152e-01
      5.215000000000e-01      1.519485920608e-02
 s           8
      6.665000000000e+03     -2.932696526865e-04
      1.000000000000e+03     -2.318035473975e-03
      2.280000000000e+02     -1.149978603857e-02
      6.471000000000e+01     -4.682672700979e-02
      2.106000000000e+01     -1.284661687505e-01
      7.495000000000e+00     -3.012662724629e-01
      2.797000000000e+00     -2.556307023301e-01
      5.215000000000e-01      1.093793361012e+00
 s           1
      1.596000000000e-01      1.000000000000e+00
 s           1
      4.690000000000e-02      1.000000000000e+00
 p           3
      9.439000000000e+00      5.697925159004e-02
      2.002000000000e+00      3.132072115007e-01
      5.456000000000e-01      7.603767417375e-01
 p           1
      1.517000000000e-01      1.000000000000e+00
 p           1
      4.041000000000e-02      1.000000000000e+00
 d           1
      5.500000000000e-01      1.000000000000e+00
 d           1
      1.510000000000e-01      1.000000000000e+00

11
 s           3
      1.301000000000e+01      3.349872639000e-02
      1.962000000000e+00      2.348008011741e-01
      4.446000000000e-01      8.136829578829e-01
 s           1
      1.220000000000e-01      1.000000000000e+00
 s           1
      2.974000000000e-02      1.000000000000e+00
 p           1
      7.270000000000e-01      1.000000000000e+00
 p           1
      1.410000000000e-01      1.000000000000e+00

12
 s           3
      1.301000000000e+01      3.349872639000e-02
      1.962000000000e+00      2.348008011741e-01
      4.446000000000e-01      8.136829578829e-01
 s           1
      1.220000000000e-01      1.000000000000e+00
 s           1
      2.974000000000e-02      1.000000000000e+00
 p           1
      7.270000000000e-01      1.000000000000e+00
 p           1
      1.410000000000e-01      1.000000000000e+00

13
 s           3
      1.301000000000e+01      3.349872639000e-02
      1.962000000000e+00      2.348008011741e-01
      4.446000000000e-01      8.136829578829e-01
 s           1
      1.220000000000e-01      1.000000000000e+00
 s           1
      2.974000000000e-02      1.000000000000e+00
 p           1
      7.270000000000e-01      1.000000000000e+00
 p           1
      1.410000000000e-01      1.000000000000e+00

14
 s           3
      1.301000000000e+01      3.349872639000e-02
      1.962000000000e+00      2.348008011741e-01
      4.446000000000e-01      8.136829578829e-01
 s           1
      1.220000000000e-01      1.000000000000e+00
 s           1
      2.974000000000e-02      1.000000000000e+00
 p           1
      7.270000000000e-01      1.000000000000e+00
 p           1
      1.410000000000e-01      1.000000000000e+00

15
 s           3
      1.301000000000e+01      3.349872639000e-02
      1.962000000000e+00      2.348008011741e-01
      4.446000000000e-01      8.136829578829e-01
 s           1
      1.220000000000e-01      1.000000000000e+00
 s           1
      2.974000000000e-02      1.000000000000e+00
 p           1
      7.270000000000e-01      1.000000000000e+00
 p           1
      1.410000000000e-01      1.000000000000e+00

16
 s           3
      1.301000000000e+01      3.349872639000e-02
      1.962000000000e+00      2.348008011741e-01
      4.446000000000e-01      8.136829578829e-01
 s           1
      1.220000000000e-01      1.000000000000e+00
 s           1
      2.974000000000e-02      1.000000000000e+00
 p           1
      7.270000000000e-01      1.000000000000e+00
 p           1
      1.410000000000e-01      1.000000000000e+00

17
 s           3
      1.301000000000e+01      3.349872639000e-02
      1.962000000000e+00      2.348008011741e-01
      4.446000000000e-01      8.136829578829e-01
 s           1
      1.220000000000e-01      1.000000000000e+00
 s           1
      2.974000000000e-02      1.000000000000e+00
 p           1
      7.270000000000e-01      1.000000000000e+00
 p           1
      1.410000000000e-01      1.000000000000e+00

18
 s           3
      1.301000000000e+01      3.349872639000e-02
      1.962000000000e+00      2.348008011741e-01
      4.446000000000e-01      8.136829578829e-01
 s           1
      1.220000000000e-01      1.000000000000e+00
 s           1
      2.974000000000e-02      1.000000000000e+00
 p           1
      7.270000000000e-01      1.000000000000e+00
 p           1
      1.410000000000e-01      1.000000000000e+00


[5D]
[7F]
[9G]
[MO]
 Ene=  -15.600536
 Spin=  Alpha
 Occup=    2.000000
   1     0.0000899516790600
   2     0.0001593532549567
   3    -0.0066303760964892
   4    -0.0035399533553870
   5     0.0000015730517215
   6    -0.0000007574253887
   7    -0.0000182915458161
   8     0.0012405384000895
   9    -0.0083238070210316
  10    -0.0012111019452550
  11     0.0029020522811201
  12     0.0028092317811549
  13     0.0011018505162240
  14     0.0000064535325179
  15    -0.0000032327058644
  16     0.0000035671792043
  17     0.0000096207295118
  18     0.0000313287272598
  19     0.0001345986723831
  20     0.0005022551202108
  21     0.0002889893715018
  22     0.0011239373763770
  23     0.0022688851429805
  24    -0.0000425894660538
  25    -0.0000468095284534
  26    -0.0086760240573853
  27     0.0105658530597618
  28    -0.0000709329647077
  29     0.0000407617951595
  30     0.0000068255849845
  31     0.0059894307136541
  32    -0.0119938345592559
  33    -0.0011207068480941
  34    -0.0042869415781174
  35     0.0028587286402999
  36    -0.0003181496782673
  37    -0.0000156493695309
  38     0.0000351868617546
  39     0.0000098416992348
  40     0.0001231080355587
  41     0.0000469499539406
  42    -0.0004737438949840
  43     0.0002713846667310
  44     0.0011492816037821
  45    -0.0030071682590557
  46     0.0032791630707047
  47    -0.0001845145157188
  48    -0.0002978166318880
  49     0.0047831812942622
  50    -0.0232366345696619
  51     0.0002864690677805
  52     0.0001315875699898
  53     0.0000697021365003
  54     0.0160981975096166
  55     0.0022139585902267
  56     0.0023220057685739
  57    -0.0025888407275330
  58     0.0037990372254147
  59     0.0005631016041940
  60     0.0000399951713503
  61     0.0000062826432093
  62    -0.0000388320094120
  63     0.0001491789455850
  64     0.0001421307605917
  65     0.0006123005259440
  66    -0.0006248230675462
  67    -0.0013939262983352
  68     0.0018493111615323
  69    -0.0064584562649166
  70    -1.0031585216842185
  71    -0.0054423251615805
  72     0.0287986831449887
  73     0.0196185522140821
  74    -0.0008477703099966
  75    -0.0000538770719616
  76     0.0014915905626204
  77     0.0032109231780816
  78     0.0007525361848686
  79    -0.0055129524961351
  80     0.0038523041476781
  81     0.0007086402487919
  82    -0.0020808561500137
  83    -0.0000799265929244
  84    -0.0000882775097422
  85    -0.0000204817592799
  86    -0.0000958690070091
  87    -0.0000955497961158
  88     0.0005973538098660
  89     0.0011911547608517
  90     0.0004782619124715
  91     0.0009863013201375
  92     0.0006254900207389
  93    -0.0001894839059342
  94    -0.0004026708102131
  95    -0.0039269908852717
  96     0.0023258564988149
  97     0.0000141622417652
  98    -0.0004589172699925
  99    -0.0001283123006939
 100     0.0002077873459872
 101     0.0021703155027076
 102     0.0009212106063483
 103     0.0009548141833120
 104     0.0009367191553627
 105     0.0005303587904092
 106     0.0002590503581324
 107    -0.0000087203125026
 108    -0.0001042105679269
 109     0.0000746829127329
 110    -0.0002337826603051
 111    -0.0004624682706804
 112    -0.0001833460309194
 113     0.0004158566432680
 114    -0.0017702946369526
 115    -0.0000597840336476
 116    -0.0000430620562667
 117    -0.0000504241274730
 118    -0.0030253989986318
 119     0.0069815133369042
 120    -0.0000120237350157
 121     0.0000214219085443
 122    -0.0000063444221691
 123    -0.0028741035120796
 124    -0.0003020687377582
 125    -0.0007992717291336
 126     0.0019344568058219
 127     0.0004407131788352
 128     0.0004518736297238
 129    -0.0000604577754454
 130    -0.0000138147015925
 131     0.0000078532345758
 132    -0.0000928599270426
 133    -0.0000855238032195
 134    -0.0000302631867457
 135    -0.0000852156418322
 136     0.0000095255094268
 137    -0.0007681706063344
 138    -0.0001559595625343
 139    -0.0001166979011064
 140    -0.0001681909754543
 141     0.0007374585242763
 142     0.0065754392462522
 143     0.0000284082833764
 144    -0.0000012953683114
 145     0.0000319409981371
 146     0.0025985489845964
 147     0.0004587104259929
 148     0.0009499580708207
 149    -0.0012618207420417
 150     0.0016601057690043
 151     0.0002216800733400
 152    -0.0000552419822663
 153     0.0000762377193503
 154     0.0000460942761303
 155    -0.0000454834778387
 156     0.0000651965658928
 157     0.0001432676453533
 158     0.0000032610871097
 159     0.0005252343425587
 160    -0.0006539969528639
 161     0.0008819338128183
 162    -0.0000604798308987
 163    -0.0000977765840861
 164     0.0036801741104787
 165    -0.0038136086749990
 166    -0.0000185961627981
 167     0.0000293847324067
 168     0.0000078606272907
 169     0.0009253385724969
 170    -0.0005451060036843
 171    -0.0001771948398768
 172    -0.0012285533743861
 173     0.0012333555009791
 174    -0.0001335431016682
 175    -0.0000289364600931
 176     0.0000308048729489
 177     0.0000082154245378
 178    -0.0000139520139666
 179    -0.0000054096666241
 180    -0.0001137949714000
 181    -0.0001366703463069
 182    -0.0001932694835663
 183    -0.0001244990524636
 184    -0.0006703469746467
 185     0.0000032726305516
 186     0.0000332422413775
 187    -0.0030004001100164
 188     0.0080316748667162
 189     0.0000653024431853
 190    -0.0000055440390770
 191     0.0000460545443297
 192    -0.0005895270563109
 193     0.0003513464157012
 194     0.0001836516917746
 195     0.0027726921259462
 196     0.0005027535199712
 197     0.0003908070477746
 198    -0.0000914801471082
 199     0.0000664999087436
 200     0.0000031110554475
 201     0.0001406595978836
 202    -0.0000192228526460
 203     0.0004537183823304
 204    -0.0001725171349440
 205    -0.0002738702277113
 206     0.0003997993984955
 207    -0.0006630310557536
 208    -0.0000857755665813
 209    -0.0001279499907739
 210    -0.0094246628294328
 211    -0.0144503137627998
 212    -0.0002405053369388
 213    -0.0000414750734250
 214    -0.0003380543593116
 215    -0.0050111186723431
 216     0.0017406396625141
 217    -0.0083879471964867
 218     0.0028332095174717
 219     0.0004012096832069
 220    -0.0025797663777417
 221     0.0001047245443349
 222     0.0001826195931918
 223     0.0000112624872476
 224    -0.0002463574480401
 225    -0.0000331699883357
 226    -0.0032128810886496
 227    -0.0032948006677235
 228     0.0011203168656330
 229     0.0013794349706307
 230     0.0002283412638036
 231    -0.0000099496256003
 232    -0.0010911426668896
 233    -0.0005420354446666
 234    -0.0000151873453631
 235    -0.0000002997098693
 236     0.0000069930051809
 237     0.0001047118257046
 238    -0.0005408967252947
 239    -0.0000302335812353
 240    -0.0000709053381313
 241     0.0008477266400251
 242     0.0003726323079050
 243    -0.0000446436152286
 244    -0.0000025653220516
 245    -0.0000137237951003
 246    -0.0005463657356216
 247    -0.0006711086579604
 248    -0.0002378039007563
 249     0.0002523151693300
 250     0.0002655252833521
 251    -0.0016325599723519
 252    -0.0000293355592437
 253    -0.0001165056982734
 254    -0.0000156448290855
 255     0.0016167347882928
 256     0.0003666397609991
 257     0.0003673153022349
 258    -0.0000921544812151
 259    -0.0011129550030841
 260     0.0003768999902269
 261     0.0000113827469736
 262    -0.0000392501904137
 263    -0.0000068929680587
 264     0.0003820995209359
 265    -0.0000444943181634
 266    -0.0000029764425409
 267    -0.0000743167549252
 268    -0.0010197619684079
 269     0.0016377693076867
 270     0.0000277848842449
 271    -0.0000139838979286
 272    -0.0000023419203475
 273     0.0001092087972409
 274    -0.0000791853719997
 275    -0.0000852712290056
 276    -0.0000233171509544
 277     0.0005941099009283
 278     0.0001310598455300
 279    -0.0000217189929755
 280    -0.0000029184134289
 281     0.0000088817964092
 282     0.0001027349705862
 283    -0.0000311321975853
 284    -0.0001087747176882
 285     0.0000216160123776
 286    -0.0015097763001357
 287     0.0005236392889429
 288    -0.0000179398806502
 289     0.0000152473628875
 290     0.0000103691761971
 291    -0.0002221209421711
 292     0.0004819266834221
 293     0.0001006729951907
 294     0.0001872032407768
 295    -0.0021229454948302
 296    -0.0013161453568473
 297    -0.0000164284969290
 298    -0.0000171949248766
 299     0.0002589852974758
 300    -0.0012010942083272
 301     0.0003374530646615
 302    -0.0008307889734098
 Ene=  -11.311837
 Spin=  Alpha
 Occup=    2.000000
   1     0.0000635126057617
   2     0.0001056415950533
   3    -0.0067526185949479
   4     0.0068689121383288
   5     0.0000232509052495
   6    -0.0000050772696473
   7     0.0000219797096907
   8     0.0017031846471436
   9    -0.0056159879513872
  10    -0.0002406980901676
  11    -0.0015729153755630
  12     0.0001351825636074
  13    -0.0001991921819784
  14     0.0000459960062960
  15    -0.0000189006716119
  16    -0.0000073229128387
  17     0.0000013906581235
  18     0.0000224481533057
  19    -0.0000693577614656
  20    -0.0000202910269222
  21    -0.0000201499984472
  22     0.0003562758006703
  23     0.0009624011365703
  24    -0.0000595548627718
  25    -0.0000945507009899
  26    -0.0113414443128641
  27    -0.0083788851498247
  28     0.0001586096297503
  29    -0.0000386029309161
  30     0.0000290082964559
  31     0.0085088554289427
  32    -0.0083379211281847
  33    -0.0002762163047291
  34     0.0022103545815101
  35     0.0008778973295987
  36     0.0002436746277232
  37     0.0000178105307684
  38    -0.0000111555406155
  39     0.0000168156155513
  40    -0.0000721424029782
  41     0.0000080986104870
  42    -0.0000006097642060
  43     0.0000878410327631
  44     0.0009232904389112
  45    -0.0036234765088044
  46     0.0020658958855024
  47     0.0002283867742914
  48    -0.0000113268956683
  49     0.0134052776558938
  50     0.0057837985186687
  51    -0.0002316411107261
  52    -0.0000374169018774
  53    -0.0001365153461205
  54     0.0111881964453075
  55    -0.0039595569124410
  56     0.0012996762186919
  57     0.0012076701719999
  58    -0.0026752270696518
  59     0.0001655662250076
  60    -0.0000755889165482
  61    -0.0000464708796451
  62     0.0000520760674658
  63    -0.0001229079202601
  64    -0.0001194260042963
  65    -0.0007812762001854
  66    -0.0004417194802066
  67    -0.0009754186612419
  68     0.0005124708472941
  69    -0.0054899521525071
  70    -0.0001971190231353
  71    -0.0007770847817435
  72     0.0045945699748882
  73     0.0015038473647249
  74     0.0003169512811401
  75    -0.0001841196762218
  76     0.0001356490965092
  77     0.0019262215115967
  78     0.0008369266025351
  79    -0.0012550695176585
  80     0.0022704933270100
  81     0.0004353247332981
  82    -0.0018326814794796
  83     0.0000167331508053
  84     0.0001369053275686
  85     0.0000356718588018
  86     0.0001039369347040
  87     0.0000803715460500
  88     0.0016183996967764
  89     0.0002893247716759
  90    -0.0001263559371923
  91    -0.0003653064691523
  92    -0.0005491305702300
  93    -0.0001749463847273
  94    -0.0003611984965048
  95    -0.0019841326165928
  96     0.0003246436150822
  97     0.0000694650005023