[Molden Format]
[Atoms] Angs
 c       1                    6  2.429206283960e+00 -6.588641292617e-01  6.630099854695e-01
 c       2                    6  2.291096934183e+00  7.708913412825e-01  7.422283128563e-01
 c       3                    6  1.101588944976e+00  1.383668090973e+00  4.471740400317e-01
 n       4                    7 -1.506950436264e-02  6.449269707101e-01  4.983259741502e-02
 b       5                    5 -2.349647084834e-03 -8.347454119950e-01  1.941174879916e-02
 c       6                    6  1.346501120752e+00 -1.471224208090e+00  3.428155945376e-01
 c       7                    6 -1.330507207779e+00 -1.496133873230e+00 -3.876692763562e-01
 c       8                    6 -2.450100458871e+00 -6.993575933281e-01 -5.993449671402e-01
 c       9                    6 -2.324353252020e+00  7.321990863616e-01 -6.161228752121e-01
 c      10                    6 -1.116095583711e+00  1.353684702257e+00 -4.020270151564e-01
 h      11                    1  3.417347074859e+00 -1.082814858552e+00  8.554713694990e-01
 h      12                    1  3.139866698377e+00  1.404048664568e+00  1.013720514812e+00
 h      13                    1  9.401423123800e-01  2.463067404280e+00  5.277965450759e-01
 h      14                    1  1.507878788093e+00 -2.553650637121e+00  2.787017902228e-01
 h      15                    1 -1.418551360587e+00 -2.576992451649e+00 -5.330260004002e-01
 h      16                    1 -3.428737394518e+00 -1.139708938464e+00 -8.322464178630e-01
 h      17                    1 -3.178901665457e+00  1.367544044840e+00 -8.758866558365e-01
 h      18                    1 -9.089620831911e-01  2.393461796419e+00 -6.938392907527e-01
[GTO]
1
 s           8
      6.665000000000e+03      6.915839628130e-04
      1.000000000000e+03      5.325796152934e-03
      2.280000000000e+02      2.706072104203e-02
      6.471000000000e+01      1.016568461408e-01
      2.106000000000e+01      2.745748236174e-01
      7.495000000000e+00      4.482943189238e-01
      2.797000000000e+00      2.849026107152e-01
      5.215000000000e-01      1.519485920608e-02
 s           8
      6.665000000000e+03     -2.932696526865e-04
      1.000000000000e+03     -2.318035473975e-03
      2.280000000000e+02     -1.149978603857e-02
      6.471000000000e+01     -4.682672700979e-02
      2.106000000000e+01     -1.284661687505e-01
      7.495000000000e+00     -3.012662724629e-01
      2.797000000000e+00     -2.556307023301e-01
      5.215000000000e-01      1.093793361012e+00
 s           1
      1.596000000000e-01      1.000000000000e+00
 s           1
      4.690000000000e-02      1.000000000000e+00
 p           3
      9.439000000000e+00      5.697925159004e-02
      2.002000000000e+00      3.132072115007e-01
      5.456000000000e-01      7.603767417375e-01
 p           1
      1.517000000000e-01      1.000000000000e+00
 p           1
      4.041000000000e-02      1.000000000000e+00
 d           1
      5.500000000000e-01      1.000000000000e+00
 d           1
      1.510000000000e-01      1.000000000000e+00

2
 s           8
      6.665000000000e+03      6.915839628130e-04
      1.000000000000e+03      5.325796152934e-03
      2.280000000000e+02      2.706072104203e-02
      6.471000000000e+01      1.016568461408e-01
      2.106000000000e+01      2.745748236174e-01
      7.495000000000e+00      4.482943189238e-01
      2.797000000000e+00      2.849026107152e-01
      5.215000000000e-01      1.519485920608e-02
 s           8
      6.665000000000e+03     -2.932696526865e-04
      1.000000000000e+03     -2.318035473975e-03
      2.280000000000e+02     -1.149978603857e-02
      6.471000000000e+01     -4.682672700979e-02
      2.106000000000e+01     -1.284661687505e-01
      7.495000000000e+00     -3.012662724629e-01
      2.797000000000e+00     -2.556307023301e-01
      5.215000000000e-01      1.093793361012e+00
 s           1
      1.596000000000e-01      1.000000000000e+00
 s           1
      4.690000000000e-02      1.000000000000e+00
 p           3
      9.439000000000e+00      5.697925159004e-02
      2.002000000000e+00      3.132072115007e-01
      5.456000000000e-01      7.603767417375e-01
 p           1
      1.517000000000e-01      1.000000000000e+00
 p           1
      4.041000000000e-02      1.000000000000e+00
 d           1
      5.500000000000e-01      1.000000000000e+00
 d           1
      1.510000000000e-01      1.000000000000e+00

3
 s           8
      6.665000000000e+03      6.915839628130e-04
      1.000000000000e+03      5.325796152934e-03
      2.280000000000e+02      2.706072104203e-02
      6.471000000000e+01      1.016568461408e-01
      2.106000000000e+01      2.745748236174e-01
      7.495000000000e+00      4.482943189238e-01
      2.797000000000e+00      2.849026107152e-01
      5.215000000000e-01      1.519485920608e-02
 s           8
      6.665000000000e+03     -2.932696526865e-04
      1.000000000000e+03     -2.318035473975e-03
      2.280000000000e+02     -1.149978603857e-02
      6.471000000000e+01     -4.682672700979e-02
      2.106000000000e+01     -1.284661687505e-01
      7.495000000000e+00     -3.012662724629e-01
      2.797000000000e+00     -2.556307023301e-01
      5.215000000000e-01      1.093793361012e+00
 s           1
      1.596000000000e-01      1.000000000000e+00
 s           1
      4.690000000000e-02      1.000000000000e+00
 p           3
      9.439000000000e+00      5.697925159004e-02
      2.002000000000e+00      3.132072115007e-01
      5.456000000000e-01      7.603767417375e-01
 p           1
      1.517000000000e-01      1.000000000000e+00
 p           1
      4.041000000000e-02      1.000000000000e+00
 d           1
      5.500000000000e-01      1.000000000000e+00
 d           1
      1.510000000000e-01      1.000000000000e+00

4
 s           8
      9.046000000000e+03      6.996174134255e-04
      1.357000000000e+03      5.386054629929e-03
      3.093000000000e+02      2.739102118906e-02
      8.773000000000e+01      1.031505919820e-01
      2.856000000000e+01      2.785706633174e-01
      1.021000000000e+01      4.482948494541e-01
      3.838000000000e+00      2.780859283953e-01
      7.466000000000e-01      1.543156123327e-02
 s           8
      9.046000000000e+03     -3.049900959534e-04
      1.357000000000e+03     -2.408026378508e-03
      3.093000000000e+02     -1.194444872518e-02
      8.773000000000e+01     -4.892599290902e-02
      2.856000000000e+01     -1.344727247250e-01
      1.021000000000e+01     -3.151125777001e-01
      3.838000000000e+00     -2.428578325496e-01
      7.466000000000e-01      1.094382206854e+00
 s           1
      2.248000000000e-01      1.000000000000e+00
 s           1
      6.124000000000e-02      1.000000000000e+00
 p           3
      1.355000000000e+01      5.890567677213e-02
      2.917000000000e+00      3.204611067143e-01
      7.973000000000e-01      7.530420617921e-01
 p           1
      2.185000000000e-01      1.000000000000e+00
 p           1
      5.611000000000e-02      1.000000000000e+00
 d           1
      8.170000000000e-01      1.000000000000e+00
 d           1
      2.300000000000e-01      1.000000000000e+00

5
 s           8
      4.570000000000e+03      6.955544180306e-04
      6.859000000000e+02      5.349572988100e-03
      1.565000000000e+02      2.711662870523e-02
      4.447000000000e+01      1.013150961206e-01
      1.448000000000e+01      2.718808293065e-01
      5.131000000000e+00      4.481159306152e-01
      1.898000000000e+00      2.899372621010e-01
      3.329000000000e-01      1.431283099861e-02
 s           8
      4.570000000000e+03     -2.812802240142e-04
      6.859000000000e+02     -2.219887811105e-03
      1.565000000000e+02     -1.101647150743e-02
      4.447000000000e+01     -4.434918985248e-02
      1.448000000000e+01     -1.209120479502e-01
      5.131000000000e+00     -2.807378995535e-01
      1.898000000000e+00     -2.660668087326e-01
      3.329000000000e-01      1.091784130514e+00
 s           1
      1.043000000000e-01      1.000000000000e+00
 s           1
      3.105000000000e-02      1.000000000000e+00
 p           3
      6.001000000000e+00      5.416586334015e-02
      1.241000000000e+00      3.023798901809e-01
      3.364000000000e-01      7.712922165481e-01
 p           1
      9.538000000000e-02      1.000000000000e+00
 p           1
      2.378000000000e-02      1.000000000000e+00
 d           1
      3.430000000000e-01      1.000000000000e+00
 d           1
      9.040000000000e-02      1.000000000000e+00

6
 s           8
      6.665000000000e+03      6.915839628130e-04
      1.000000000000e+03      5.325796152934e-03
      2.280000000000e+02      2.706072104203e-02
      6.471000000000e+01      1.016568461408e-01
      2.106000000000e+01      2.745748236174e-01
      7.495000000000e+00      4.482943189238e-01
      2.797000000000e+00      2.849026107152e-01
      5.215000000000e-01      1.519485920608e-02
 s           8
      6.665000000000e+03     -2.932696526865e-04
      1.000000000000e+03     -2.318035473975e-03
      2.280000000000e+02     -1.149978603857e-02
      6.471000000000e+01     -4.682672700979e-02
      2.106000000000e+01     -1.284661687505e-01
      7.495000000000e+00     -3.012662724629e-01
      2.797000000000e+00     -2.556307023301e-01
      5.215000000000e-01      1.093793361012e+00
 s           1
      1.596000000000e-01      1.000000000000e+00
 s           1
      4.690000000000e-02      1.000000000000e+00
 p           3
      9.439000000000e+00      5.697925159004e-02
      2.002000000000e+00      3.132072115007e-01
      5.456000000000e-01      7.603767417375e-01
 p           1
      1.517000000000e-01      1.000000000000e+00
 p           1
      4.041000000000e-02      1.000000000000e+00
 d           1
      5.500000000000e-01      1.000000000000e+00
 d           1
      1.510000000000e-01      1.000000000000e+00

7
 s           8
      6.665000000000e+03      6.915839628130e-04
      1.000000000000e+03      5.325796152934e-03
      2.280000000000e+02      2.706072104203e-02
      6.471000000000e+01      1.016568461408e-01
      2.106000000000e+01      2.745748236174e-01
      7.495000000000e+00      4.482943189238e-01
      2.797000000000e+00      2.849026107152e-01
      5.215000000000e-01      1.519485920608e-02
 s           8
      6.665000000000e+03     -2.932696526865e-04
      1.000000000000e+03     -2.318035473975e-03
      2.280000000000e+02     -1.149978603857e-02
      6.471000000000e+01     -4.682672700979e-02
      2.106000000000e+01     -1.284661687505e-01
      7.495000000000e+00     -3.012662724629e-01
      2.797000000000e+00     -2.556307023301e-01
      5.215000000000e-01      1.093793361012e+00
 s           1
      1.596000000000e-01      1.000000000000e+00
 s           1
      4.690000000000e-02      1.000000000000e+00
 p           3
      9.439000000000e+00      5.697925159004e-02
      2.002000000000e+00      3.132072115007e-01
      5.456000000000e-01      7.603767417375e-01
 p           1
      1.517000000000e-01      1.000000000000e+00
 p           1
      4.041000000000e-02      1.000000000000e+00
 d           1
      5.500000000000e-01      1.000000000000e+00
 d           1
      1.510000000000e-01      1.000000000000e+00

8
 s           8
      6.665000000000e+03      6.915839628130e-04
      1.000000000000e+03      5.325796152934e-03
      2.280000000000e+02      2.706072104203e-02
      6.471000000000e+01      1.016568461408e-01
      2.106000000000e+01      2.745748236174e-01
      7.495000000000e+00      4.482943189238e-01
      2.797000000000e+00      2.849026107152e-01
      5.215000000000e-01      1.519485920608e-02
 s           8
      6.665000000000e+03     -2.932696526865e-04
      1.000000000000e+03     -2.318035473975e-03
      2.280000000000e+02     -1.149978603857e-02
      6.471000000000e+01     -4.682672700979e-02
      2.106000000000e+01     -1.284661687505e-01
      7.495000000000e+00     -3.012662724629e-01
      2.797000000000e+00     -2.556307023301e-01
      5.215000000000e-01      1.093793361012e+00
 s           1
      1.596000000000e-01      1.000000000000e+00
 s           1
      4.690000000000e-02      1.000000000000e+00
 p           3
      9.439000000000e+00      5.697925159004e-02
      2.002000000000e+00      3.132072115007e-01
      5.456000000000e-01      7.603767417375e-01
 p           1
      1.517000000000e-01      1.000000000000e+00
 p           1
      4.041000000000e-02      1.000000000000e+00
 d           1
      5.500000000000e-01      1.000000000000e+00
 d           1
      1.510000000000e-01      1.000000000000e+00

9
 s           8
      6.665000000000e+03      6.915839628130e-04
      1.000000000000e+03      5.325796152934e-03
      2.280000000000e+02      2.706072104203e-02
      6.471000000000e+01      1.016568461408e-01
      2.106000000000e+01      2.745748236174e-01
      7.495000000000e+00      4.482943189238e-01
      2.797000000000e+00      2.849026107152e-01
      5.215000000000e-01      1.519485920608e-02
 s           8
      6.665000000000e+03     -2.932696526865e-04
      1.000000000000e+03     -2.318035473975e-03
      2.280000000000e+02     -1.149978603857e-02
      6.471000000000e+01     -4.682672700979e-02
      2.106000000000e+01     -1.284661687505e-01
      7.495000000000e+00     -3.012662724629e-01
      2.797000000000e+00     -2.556307023301e-01
      5.215000000000e-01      1.093793361012e+00
 s           1
      1.596000000000e-01      1.000000000000e+00
 s           1
      4.690000000000e-02      1.000000000000e+00
 p           3
      9.439000000000e+00      5.697925159004e-02
      2.002000000000e+00      3.132072115007e-01
      5.456000000000e-01      7.603767417375e-01
 p           1
      1.517000000000e-01      1.000000000000e+00
 p           1
      4.041000000000e-02      1.000000000000e+00
 d           1
      5.500000000000e-01      1.000000000000e+00
 d           1
      1.510000000000e-01      1.000000000000e+00

10
 s           8
      6.665000000000e+03      6.915839628130e-04
      1.000000000000e+03      5.325796152934e-03
      2.280000000000e+02      2.706072104203e-02
      6.471000000000e+01      1.016568461408e-01
      2.106000000000e+01      2.745748236174e-01
      7.495000000000e+00      4.482943189238e-01
      2.797000000000e+00      2.849026107152e-01
      5.215000000000e-01      1.519485920608e-02
 s           8
      6.665000000000e+03     -2.932696526865e-04
      1.000000000000e+03     -2.318035473975e-03
      2.280000000000e+02     -1.149978603857e-02
      6.471000000000e+01     -4.682672700979e-02
      2.106000000000e+01     -1.284661687505e-01
      7.495000000000e+00     -3.012662724629e-01
      2.797000000000e+00     -2.556307023301e-01
      5.215000000000e-01      1.093793361012e+00
 s           1
      1.596000000000e-01      1.000000000000e+00
 s           1
      4.690000000000e-02      1.000000000000e+00
 p           3
      9.439000000000e+00      5.697925159004e-02
      2.002000000000e+00      3.132072115007e-01
      5.456000000000e-01      7.603767417375e-01
 p           1
      1.517000000000e-01      1.000000000000e+00
 p           1
      4.041000000000e-02      1.000000000000e+00
 d           1
      5.500000000000e-01      1.000000000000e+00
 d           1
      1.510000000000e-01      1.000000000000e+00

11
 s           3
      1.301000000000e+01      3.349872639000e-02
      1.962000000000e+00      2.348008011741e-01
      4.446000000000e-01      8.136829578829e-01
 s           1
      1.220000000000e-01      1.000000000000e+00
 s           1
      2.974000000000e-02      1.000000000000e+00
 p           1
      7.270000000000e-01      1.000000000000e+00
 p           1
      1.410000000000e-01      1.000000000000e+00

12
 s           3
      1.301000000000e+01      3.349872639000e-02
      1.962000000000e+00      2.348008011741e-01
      4.446000000000e-01      8.136829578829e-01
 s           1
      1.220000000000e-01      1.000000000000e+00
 s           1
      2.974000000000e-02      1.000000000000e+00
 p           1
      7.270000000000e-01      1.000000000000e+00
 p           1
      1.410000000000e-01      1.000000000000e+00

13
 s           3
      1.301000000000e+01      3.349872639000e-02
      1.962000000000e+00      2.348008011741e-01
      4.446000000000e-01      8.136829578829e-01
 s           1
      1.220000000000e-01      1.000000000000e+00
 s           1
      2.974000000000e-02      1.000000000000e+00
 p           1
      7.270000000000e-01      1.000000000000e+00
 p           1
      1.410000000000e-01      1.000000000000e+00

14
 s           3
      1.301000000000e+01      3.349872639000e-02
      1.962000000000e+00      2.348008011741e-01
      4.446000000000e-01      8.136829578829e-01
 s           1
      1.220000000000e-01      1.000000000000e+00
 s           1
      2.974000000000e-02      1.000000000000e+00
 p           1
      7.270000000000e-01      1.000000000000e+00
 p           1
      1.410000000000e-01      1.000000000000e+00

15
 s           3
      1.301000000000e+01      3.349872639000e-02
      1.962000000000e+00      2.348008011741e-01
      4.446000000000e-01      8.136829578829e-01
 s           1
      1.220000000000e-01      1.000000000000e+00
 s           1
      2.974000000000e-02      1.000000000000e+00
 p           1
      7.270000000000e-01      1.000000000000e+00
 p           1
      1.410000000000e-01      1.000000000000e+00

16
 s           3
      1.301000000000e+01      3.349872639000e-02
      1.962000000000e+00      2.348008011741e-01
      4.446000000000e-01      8.136829578829e-01
 s           1
      1.220000000000e-01      1.000000000000e+00
 s           1
      2.974000000000e-02      1.000000000000e+00
 p           1
      7.270000000000e-01      1.000000000000e+00
 p           1
      1.410000000000e-01      1.000000000000e+00

17
 s           3
      1.301000000000e+01      3.349872639000e-02
      1.962000000000e+00      2.348008011741e-01
      4.446000000000e-01      8.136829578829e-01
 s           1
      1.220000000000e-01      1.000000000000e+00
 s           1
      2.974000000000e-02      1.000000000000e+00
 p           1
      7.270000000000e-01      1.000000000000e+00
 p           1
      1.410000000000e-01      1.000000000000e+00

18
 s           3
      1.301000000000e+01      3.349872639000e-02
      1.962000000000e+00      2.348008011741e-01
      4.446000000000e-01      8.136829578829e-01
 s           1
      1.220000000000e-01      1.000000000000e+00
 s           1
      2.974000000000e-02      1.000000000000e+00
 p           1
      7.270000000000e-01      1.000000000000e+00
 p           1
      1.410000000000e-01      1.000000000000e+00


[5D]
[7F]
[9G]
[MO]
 Ene=  -15.637016
 Spin=  Alpha
 Occup=    2.000000
   1     0.0000792644231080
   2     0.0001387928020501
   3    -0.0057074944241720
   4    -0.0046258690838432
   5    -0.0000137583339718
   6    -0.0000065854102475
   7     0.0000083860627044
   8     0.0011389213995882
   9    -0.0065573659461657
  10    -0.0003877175076098
  11     0.0029254794889631
  12     0.0033764221260067
  13     0.0011271041680532
  14     0.0000041407217807
  15     0.0000020069746197
  16    -0.0000093480420135
  17     0.0000238347925085
  18    -0.0000085515334145
  19     0.0002171096547132
  20     0.0003598899691549
  21     0.0002975783859264
  22     0.0006660987253729
  23     0.0015837291391385
  24    -0.0000145169339058
  25    -0.0000059348816205
  26    -0.0064313881276737
  27     0.0143215027422696
  28    -0.0000984861636913
  29     0.0000437069886381
  30    -0.0000243448195818
  31     0.0043878483728740
  32    -0.0091865238261549
  33     0.0009206961143114
  34    -0.0055812888052844
  35     0.0026870195026506
  36    -0.0014906373085034
  37    -0.0000014941654013
  38     0.0000353165422487
  39    -0.0000055145850873
  40     0.0000921152771888
  41     0.0000123352856780
  42    -0.0007483729567823
  43    -0.0004396419163164
  44     0.0008808309956619
  45    -0.0027572040022976
  46     0.0020012352028367
  47    -0.0001735963995430
  48    -0.0002679595846918
  49     0.0005685132530373
  50    -0.0284148279536750
  51     0.0003080428102609
  52     0.0001874680040322
  53     0.0001165008995305
  54     0.0129610670280836
  55     0.0028314253235770
  56     0.0038520040621906
  57    -0.0030811119497319
  58     0.0050889672966715
  59    -0.0002167595024126
  60     0.0000809253468724
  61     0.0000349279125206
  62     0.0000216029060301
  63     0.0001310785191181
  64     0.0001890476378982
  65     0.0008200341407823
  66    -0.0007874004534382
  67    -0.0016190119453048
  68     0.0013370103577341
  69    -0.0054912483303205
  70    -1.0030769809825895
  71    -0.0054020332556886
  72     0.0277635809848956
  73     0.0218521797791426
  74    -0.0000075303300594
  75    -0.0009129121906693
  76     0.0000905281591600
  77    -0.0000051902951080
  78     0.0052481205168495
  79    -0.0001567143514078
  80     0.0005354639371908
  81     0.0033912260524320
  82     0.0001028380358330
  83     0.0001656081647330
  84    -0.0001569051776216
  85     0.0000020267706419
  86    -0.0000250318819794
  87     0.0000083631841418
  88    -0.0005444597614127
  89     0.0012429768088976
  90     0.0000568622611120
  91     0.0016295999763696
  92    -0.0000067712574996
  93     0.0000889890793039
  94     0.0000995199162392
  95    -0.0001024255349686
  96     0.0042608118177997
  97     0.0000231259454950
  98    -0.0001253520408821
  99     0.0000254089231530
 100    -0.0003494392758189
 101     0.0027071550681626
 102    -0.0001101134226332
 103     0.0000586205231903
 104     0.0011416221821317
 105     0.0000658013037689
 106     0.0000439668556661
 107    -0.0000680500982791
 108     0.0000094152347051
 109    -0.0001411418621956
 110    -0.0000103931446841
 111    -0.0004830351298610
 112    -0.0001278903905905
 113     0.0001146185202618
 114    -0.0021378759858079
 115     0.0001090400475174
 116     0.0000055264073748
 117     0.0000284805555605
 118    -0.0012618322140829
 119     0.0087911239949812
 120    -0.0000301181699259
 121     0.0000441560148752
 122     0.0000003090129846
 123    -0.0018062616076786
 124    -0.0004881943109138
 125    -0.0004398008229222
 126     0.0022637649440950
 127     0.0012735776152398
 128     0.0004932049106056
 129    -0.0000367902273067
 130     0.0000058928991734
 131    -0.0000140789975436
 132    -0.0000341245977203
 133    -0.0000490869130876
 134     0.0001304809176329
 135    -0.0001944023263750
 136     0.0001210503312711
 137    -0.0007172926453348
 138    -0.0001028311630144
 139    -0.0000013731706035
 140    -0.0000041366782464
 141    -0.0012298250778074
 142     0.0072881561454238
 143    -0.0000030602266329
 144     0.0000274130176117
 145    -0.0000034704007778
 146     0.0017020968755357
 147    -0.0003283986019978
 148     0.0003601770942136
 149    -0.0015315185708728
 150     0.0009797326624079
 151    -0.0001182757480430
 152    -0.0000327163886050
 153     0.0000096180632952
 154     0.0000204034392322
 155    -0.0000313803159065
 156     0.0000417526894005
 157     0.0000501687328234
 158    -0.0001840889709797
 159     0.0000254126111869
 160    -0.0008384234775867
 161     0.0000187214818589
 162     0.0000847516228716
 163     0.0001516591965785
 164    -0.0053644631937570
 165    -0.0028786135487869
 166     0.0000109641534532
 167    -0.0000034069952411
 168     0.0000112458055534
 169    -0.0013048767053697
 170    -0.0063991900849789
 171    -0.0004837234176694
 172    -0.0024253299135421
 173     0.0027799851648085
 174    -0.0006358575277350
 175     0.0000088486385221
 176     0.0000022165765229
 177     0.0000127485858164
 178     0.0000231690085308
 179     0.0000059717081732
 180     0.0001436352159344
 181     0.0001064759239302
 182    -0.0004911435607303
 183     0.0006304138482409
 184    -0.0016601364518131
 185    -0.0000055030605608
 186     0.0000105531548923
 187    -0.0060113918838468
 188     0.0119242610523454
 189     0.0000941174052709
 190     0.0000424428250502
 191     0.0000345417083171
 192    -0.0037856010504551
 193    -0.0093378163421561
 194    -0.0004769359799326
 195     0.0046582302153844
 196     0.0025957097922812
 197     0.0010401033269130
 198    -0.0000006309287486
 199     0.0000371235822353
 200     0.0000282227005163
 201     0.0000854527366873
 202    -0.0000025462492992
 203    -0.0005963663550149
 204    -0.0002368035386292
 205    -0.0010092516780160
 206    -0.0023028395503459
 207    -0.0022294944522176
 208    -0.0001817188482789
 209    -0.0002704750374156
 210    -0.0003211866108071
 211    -0.0250553911155484
 212    -0.0003072511931185
 213     0.0001832157689981
 214    -0.0000950501461065
 215    -0.0129772824397573
 216     0.0031234887300497
 217    -0.0038402778649990
 218     0.0025728838073849
 219     0.0040224028538961
 220    -0.0004694195086856
 221     0.0000637269391219
 222     0.0000657372350159
 223     0.0000230448392894
 224     0.0001161226374962
 225    -0.0002030515176894
 226     0.0005947770202174
 227    -0.0012886177959776
 228     0.0016089537091095
 229     0.0016475236971200
 230     0.0049608932036858
 231     0.0000018585678311
 232    -0.0011833560999255
 233    -0.0002722548268478
 234    -0.0000013079650487
 235     0.0000076168331327
 236    -0.0000029267898378
 237     0.0002594831025240
 238    -0.0004714803859150
 239    -0.0000294019119558
 240    -0.0000140534521959
 241     0.0014882005902828
 242     0.0009296799086349
 243    -0.0000301652262012
 244    -0.0000108694974838
 245    -0.0000112179155156
 246    -0.0006029218131166
 247    -0.0006925296334186
 248    -0.0002037425232547
 249     0.0003103741374234
 250     0.0001577377075442
 251    -0.0023014642256788
 252    -0.0000278991838744
 253    -0.0001653420331979
 254    -0.0000349335062747
 255     0.0014485220791705
 256     0.0003088871297616
 257     0.0002582070895486
 258    -0.0000256688785726
 259    -0.0016165061239797
 260     0.0010411768525057
 261    -0.0000003541674609
 262    -0.0000197669870845
 263     0.0000032706868663
 264     0.0004070830494715
 265    -0.0002688111363719
 266     0.0000997048061043
 267    -0.0000241561317408
 268    -0.0018990245553585
 269     0.0010377066884836
 270     0.0000029527768784
 271    -0.0000138136373420
 272    -0.0000009054986623
 273    -0.0004274966941637
 274    -0.0003470270836719
 275    -0.0002056930230176
 276    -0.0000017201715853
 277    -0.0012538246439507
 278    -0.0001033427621306
 279    -0.0000005147921839
 280     0.0000064711397916
 281     0.0000023069865097
 282    -0.0002644948595702
 283    -0.0004936887818613
 284    -0.0000653862879307
 285    -0.0000012280359866
 286     0.0014163199476201
 287     0.0005731868161220
 288     0.0000417010427808
 289    -0.0000100418154866
 290     0.0000151170558353
 291     0.0006630778396217
 292    -0.0005873159180166
 293     0.0002416936477733
 294     0.0003116263229984
 295     0.0005242172908193
 296    -0.0016815022751701
 297     0.0000239443848442
 298    -0.0001576287316260
 299     0.0000748330698150
 300    -0.0012066791764374
 301     0.0002864735940996
 302    -0.0000125339513144
 Ene=  -11.291811
 Spin=  Alpha
 Occup=    2.000000
   1     0.0000218812237126
   2     0.0000408018043092
   3    -0.0036201477133734
   4    -0.0050759334607329
   5     0.0000041688395223
   6    -0.0000140126898258
   7    -0.0000010152397245
   8     0.0013828753089947
   9     0.0031693496315080
  10     0.0002647881035431
  11    -0.0015252134583599
  12    -0.0034872528894802
  13    -0.0007014390627408
  14    -0.0000130006135331
  15     0.0000160729470962
  16    -0.0000206242581599
  17     0.0000255225844342
  18    -0.0000318303910264
  19     0.0002127533029388
  20    -0.0001018303148585
  21    -0.0000932485645340
  22    -0.0006573183560863
  23    -0.0010817144992414
  24     0.0001031651208931
  25     0.0001236635611021
  26     0.0036751362969131
  27    -0.0041186284723822
  28    -0.0000994362177496
  29     0.0000506031935425
  30    -0.0000330069806900
  31    -0.0018174507366545
  32     0.0023392777348270
  33     0.0005713734841195
  34     0.0024283089409738
  35    -0.0053139043008153
  36     0.0002097451101621
  37    -0.0000243899624855
  38    -0.0000031719506517
  39     0.0000096171176494
  40     0.0000037348674196
  41     0.0000087111528482
  42    -0.0001016933875445
  43    -0.0006490538829005
  44    -0.0000773695389353
  45     0.0001069963171153
  46    -0.0009144844083283
  47     0.0033859375906053
  48     0.0006474690764249
  49     0.0011517995538383
  50     0.0112538555101500
  51    -0.0001435501184307
  52    -0.0000712948484320
  53    -0.0000170949250917
  54    -0.0042163539487659
  55     0.0010557048883317
  56    -0.0015103720638277
  57     0.0061170090187237
  58    -0.0012152552851036
  59     0.0017887842570079
  60     0.0001141184039579
  61    -0.0000834559419561
  62    -0.0000087905280939
  63    -0.0000067962494088
  64     0.0000285523219339
  65     0.0000438014321569
  66    -0.0010671181774221
  67     0.0011367296800466
  68    -0.0009300384476829
  69     0.0017689601001521
  70    -0.0002020758261284
  71    -0.0007545076868338
  72     0.0037577979717710
  73    -0.0020799979791883
  74     0.0003145945664076
  75    -0.0001965723164896
  76     0.0002441764364059
  77    -0.0042530808752335
  78     0.0019675279030438
  79    -0.0015102609552687
  80    -0.0073627626126469
  81     0.0068766275878670
  82    -0.0022806208953481
  83    -0.0001078819459840
  84     0.0001015943630377
  85    -0.0000362573444808
  86     0.0000056382768748
  87    -0.0000091648138436
  88    -0.0003117541762206
  89     0.0004120398884745
  90    -0.0008089204734571
  91     0.0004098324130764
  92    -0.0024216217334211
  93     0.0003032029347642
  94     0.0004986613691154
  95     0.0014546605990437
  96    -0.0047674377736637
  97    -0.0000395227600681